/*--------------------------------*- C++ -*----------------------------------*\
| =========                 |                                                 |
| \\      /  F ield         | OpenFOAM: The Open Source CFD Toolbox           |
|  \\    /   O peration     | Version:  2.2.2                                 |
|   \\  /    A nd           | Web:      www.OpenFOAM.org                      |
|    \\/     M anipulation  |                                                 |
\*---------------------------------------------------------------------------*/
FoamFile
{
    version     2.0;
    format      ascii;
    class       volScalarField;
    location    "0.922666";
    object      p_0;
}
// * * * * * * * * * * * * * * * * * * * * * * * * * * * * * * * * * * * * * //

dimensions      [1 -1 -2 0 0 0 0];

internalField   nonuniform List<scalar> 
25373
(
-0.0575163
-0.0428095
-0.0138391
-0.0116126
-0.0427701
-0.0133679
-0.010086
-0.00672951
-0.0139487
-0.0101193
0.00173053
0.0106777
-0.0584491
-0.0116312
-0.0066907
0.0106035
0.0166007
-0.0268392
-0.0242952
-0.0197741
-0.0164911
-0.0242585
-0.0212229
-0.0159948
-0.00999908
-0.0197002
-0.0158055
-0.00751176
0.000117604
-0.0271324
-0.0165122
-0.0100467
-0.000155825
0.0128997
-0.0241471
-0.0192246
-0.0118599
-0.0103754
-0.0192544
0.00140717
0.0258677
0.0445617
-0.0119438
0.0258566
0.0890774
0.111705
-0.0238997
-0.0104285
0.0439636
0.111893
0.0694876
-0.0376686
-0.0364686
-0.0342153
-0.033209
-0.0364704
-0.0304154
-0.0254101
-0.022766
-0.0341669
-0.0253107
-0.0153387
-0.00239561
-0.0376083
-0.0331081
-0.0225031
-0.00200727
-0.0039255
-0.0558523
-0.0557675
-0.0542543
-0.0531499
-0.0557561
-0.0525656
-0.0487071
-0.0457664
-0.0542116
-0.0486285
-0.0404323
-0.0341406
-0.0559313
-0.0531343
-0.045604
-0.0337707
-0.0238296
-0.0764364
-0.0765387
-0.0756473
-0.075095
-0.0765154
-0.0750652
-0.0728601
-0.070521
-0.075666
-0.0727769
-0.0664506
-0.0585848
-0.0765509
-0.0751593
-0.0703397
-0.0584012
-0.0479241
-0.0982221
-0.0979314
-0.0981962
-0.0992575
-0.0979057
-0.099048
-0.100834
-0.102059
-0.0983004
-0.100783
-0.101857
-0.098804
-0.0983479
-0.0993645
-0.102
-0.0986659
-0.0920086
-0.116972
-0.115507
-0.118243
-0.12256
-0.115601
-0.121657
-0.13197
-0.14165
-0.118429
-0.132025
-0.152036
-0.167866
-0.117268
-0.122823
-0.141695
-0.167463
-0.171644
-0.122868
-0.117444
-0.124508
-0.135907
-0.117665
-0.130816
-0.16032
-0.187708
-0.124997
-0.160431
-0.214458
-0.27636
-0.12381
-0.137016
-0.18687
-0.274557
-0.0986434
-0.111393
-0.10482
-0.113793
-0.132152
-0.105054
-0.120165
-0.153825
-0.199184
-0.114396
-0.154248
-0.297923
-0.467865
-0.112351
-0.133222
-0.200762
-0.416616
-0.359122
-0.0547206
0.007421
-0.0586469
-0.047402
-0.0397765
0.00553366
0.00769795
0.00666032
-0.0590377
-0.0369921
-0.0347309
0.00740482
0.00745178
0.00759689
0.00725637
-0.0512419
-0.051132
-0.0376939
0.00234104
0.00234795
0.00305128
-0.0364427
-0.0305629
-0.0298602
-8.50377e-05
0.00194576
-0.00212784
0.00499911
-0.0545098
0.00762884
-0.0306647
-0.0367552
-0.029823
-9.97833e-05
-0.00212734
0.0020411
0.00509148
-0.0493258
-0.0611617
-0.0401874
0.00824102
0.00625
0.00711086
-0.0376898
-0.0597455
-0.0350121
0.00767866
0.00790344
0.00785523
0.00750892
-0.028316
-0.0155767
-0.0269607
-0.027997
-0.026382
-0.016463
-0.0159043
-0.0123865
-0.0273158
-0.026435
-0.025628
-0.0159688
-0.0157055
-0.0110861
-0.0091973
-0.0276868
-0.0276545
-0.0259357
-0.0217081
-0.0216955
-0.0170148
-0.0270935
-0.0249265
-0.0243587
-0.0209974
-0.0206668
-0.0243081
-0.00725337
-0.0284403
-0.0154469
-0.0249366
-0.0272334
-0.0243512
-0.0209594
-0.0243004
-0.0206394
-0.00706282
-0.0283964
-0.0273319
-0.0265098
-0.0158359
-0.0162416
-0.0121754
-0.0266751
-0.0276978
-0.025718
-0.0159823
-0.0109453
-0.0155041
-0.00909398
-0.0341186
-0.0329331
-0.0280635
-0.0273136
-0.0320338
-0.0330595
-0.0332459
-0.032351
-0.0269553
-0.0312984
-0.0334828
-0.0326904
-0.032367
-0.0319356
-0.0313653
-0.0268031
-0.026715
-0.0306979
-0.0344632
-0.0344726
-0.0332728
-0.0284812
-0.0265767
-0.0404304
-0.0361401
-0.0333794
-0.0343367
-0.0319422
-0.0343323
-0.0330163
-0.0266204
-0.02849
-0.0404697
-0.0361115
-0.0343298
-0.0333894
-0.0319578
-0.0274004
-0.0278802
-0.0319995
-0.0332337
-0.0328914
-0.0322685
-0.0314054
-0.0269311
-0.0334683
-0.032649
-0.0319313
-0.0322743
-0.0313023
-0.0443024
-0.0491617
-0.0393998
-0.0398837
-0.0417448
-0.048902
-0.0486795
-0.0482753
-0.0385577
-0.0406851
-0.0414952
-0.0482039
-0.0481392
-0.0479084
-0.0478276
-0.0405415
-0.0405046
-0.041727
-0.0496054
-0.0495242
-0.0491888
-0.0409893
-0.0403636
-0.0463626
-0.0492919
-0.0485764
-0.048928
-0.0491347
-0.0441576
-0.049089
-0.0403738
-0.0408799
-0.0462861
-0.0492969
-0.0489451
-0.0485478
-0.049125
-0.0397666
-0.0393785
-0.0416024
-0.0486837
-0.0491059
-0.0483264
-0.0406349
-0.0384751
-0.0414329
-0.0483033
-0.0480046
-0.0482346
-0.0479021
-0.0594879
-0.0681097
-0.0570446
-0.0571522
-0.0578673
-0.0681271
-0.0674521
-0.0671353
-0.056237
-0.0574049
-0.0576821
-0.0671616
-0.0673615
-0.0670364
-0.0670417
-0.0579399
-0.057862
-0.0578384
-0.0681149
-0.0681438
-0.067807
-0.0574006
-0.0571585
-0.0592911
-0.0676868
-0.0672382
-0.0675212
-0.0677966
-0.0594114
-0.0681917
-0.0571964
-0.0573144
-0.0592509
-0.0676802
-0.0675513
-0.0672399
-0.0678206
-0.0571671
-0.0571285
-0.0578529
-0.067593
-0.0683367
-0.067294
-0.0574697
-0.0561891
-0.0576868
-0.0673608
-0.0672535
-0.0676061
-0.0672396
-0.078464
-0.0896571
-0.0774115
-0.0770333
-0.0772128
-0.0898588
-0.0889529
-0.088757
-0.0766006
-0.077203
-0.0773375
-0.0888558
-0.0889369
-0.0891425
-0.0892605
-0.0775848
-0.0774608
-0.0773253
-0.0893887
-0.0893498
-0.0890042
-0.0769279
-0.0770929
-0.0781712
-0.088973
-0.088647
-0.0892456
-0.089938
-0.0785847
-0.0897379
-0.0771553
-0.0768763
-0.0781603
-0.0889585
-0.0893075
-0.0886466
-0.08996
-0.0771828
-0.0775529
-0.0773364
-0.0891881
-0.0902061
-0.0890353
-0.0773906
-0.076746
-0.077482
-0.0890595
-0.0894886
-0.0892276
-0.0895478
-0.0994032
-0.110912
-0.0993127
-0.0983157
-0.0985395
-0.111486
-0.110317
-0.110499
-0.0985651
-0.0990214
-0.0993515
-0.110256
-0.110748
-0.111709
-0.112163
-0.0983473
-0.0983755
-0.0980821
-0.110025
-0.109973
-0.109715
-0.098094
-0.098665
-0.100135
-0.109761
-0.109972
-0.111065
-0.113192
-0.0994419
-0.111043
-0.0987317
-0.0980577
-0.100122
-0.109811
-0.111149
-0.110009
-0.113256
-0.0985808
-0.0994101
-0.0987141
-0.110601
-0.111663
-0.11077
-0.099244
-0.0987644
-0.0995379
-0.110594
-0.112048
-0.110955
-0.112481
-0.117398
-0.13052
-0.11799
-0.116775
-0.117487
-0.130624
-0.129661
-0.130129
-0.117468
-0.118903
-0.119679
-0.128958
-0.129939
-0.131043
-0.132116
-0.115576
-0.115566
-0.115658
-0.129615
-0.129604
-0.129926
-0.116539
-0.117809
-0.121443
-0.129319
-0.130084
-0.131931
-0.135439
-0.117569
-0.130642
-0.117958
-0.11661
-0.121556
-0.12936
-0.132008
-0.130128
-0.13555
-0.116957
-0.118248
-0.11772
-0.129754
-0.130854
-0.1303
-0.119228
-0.11768
-0.119988
-0.129078
-0.131232
-0.130411
-0.13262
-0.119468
-0.132036
-0.122084
-0.120517
-0.122265
-0.131756
-0.132155
-0.133642
-0.122642
-0.128726
-0.127864
-0.129652
-0.130741
-0.133879
-0.137752
-0.117119
-0.11724
-0.117103
-0.13049
-0.130542
-0.130948
-0.119727
-0.121293
-0.128167
-0.129987
-0.132354
-0.135223
-0.141361
-0.119909
-0.132191
-0.121511
-0.120016
-0.12846
-0.130028
-0.135259
-0.132453
-0.141547
-0.121181
-0.122811
-0.122939
-0.132213
-0.132185
-0.133964
-0.129761
-0.122991
-0.128093
-0.129705
-0.133614
-0.131363
-0.138508
-0.106224
-0.109556
-0.107938
-0.110549
-0.111741
-0.114896
-0.116572
-0.104274
-0.104432
-0.10511
-0.108105
-0.110182
-0.117629
-0.106687
-0.110421
-0.108465
-0.117937
-0.108724
-0.110359
-0.11123
-0.116271
-0.112507
-0.117428
-0.024611
-0.0316697
-0.0461239
-0.0363222
-0.0331463
-0.0315189
-0.0352806
-0.0165349
-0.0401793
-0.0478748
-0.0345763
-0.0334034
-0.0303345
-0.0318616
-0.0270822
-0.0270496
-0.0622377
-0.0396001
-0.0314744
-0.031506
-0.0294837
-0.0138847
-0.0324459
-0.0910893
-0.0381148
-0.0328918
-0.0259926
-0.0210177
0.0206784
-0.0670492
-0.10354
-0.0415343
-0.03727
-0.0115827
-0.003666
-0.0317503
-0.0246148
-0.0459357
-0.0361727
-0.0315192
-0.0330999
-0.035314
-0.0328312
-0.0138982
-0.0907723
-0.0377346
-0.0258442
-0.0329147
-0.0210231
-0.015614
-0.014072
-0.159978
-0.0364575
-0.0226762
-0.0233368
0.0161337
0.0468258
-0.0711369
-0.138724
-0.0469277
-0.0313802
0.00428112
0.0201038
-0.0402076
-0.0167161
-0.047712
-0.0344433
-0.0304133
-0.0332783
-0.0319744
-0.0666841
0.0202235
-0.101992
-0.0413378
-0.0115926
-0.0371797
-0.00397118
-0.0724458
0.0486653
-0.137955
-0.0469897
0.00451902
-0.0318753
0.0198891
-0.00792796
-0.00586626
-0.0746422
-0.0101144
-0.00801178
-0.00759996
0.0144898
-0.0386175
-0.0408918
-0.0461102
-0.0474055
-0.0474916
-0.0468861
-0.0478604
-0.0348056
-0.041912
-0.0440643
-0.0454108
-0.0456527
-0.0452078
-0.045498
-0.0387834
-0.038695
-0.0512941
-0.0458909
-0.0460357
-0.0460314
-0.0473232
-0.0332923
-0.0376552
-0.0508759
-0.0400805
-0.0415143
-0.0412493
-0.0429035
-0.0257809
-0.0428072
-0.0499152
-0.0357081
-0.0366597
-0.0367082
-0.03651
-0.0408169
-0.0384797
-0.0459062
-0.0474067
-0.0468748
-0.0475142
-0.0478548
-0.0377038
-0.0331044
-0.0504149
-0.0400382
-0.0412082
-0.0415084
-0.0428331
-0.0285731
-0.0282606
-0.0509202
-0.0292694
-0.0321507
-0.0319993
-0.0326141
-0.0115401
-0.0330212
-0.0448752
-0.0251689
-0.0273383
-0.0234655
-0.0241354
-0.0418063
-0.0346701
-0.0438531
-0.0455364
-0.0452169
-0.045765
-0.0454746
-0.0426645
-0.0254851
-0.0493638
-0.0358458
-0.0366445
-0.0368001
-0.0364403
-0.0330892
-0.0106927
-0.0444606
-0.0251687
-0.0235458
-0.0272041
-0.0241086
-0.0163635
-0.0157437
-0.034415
-0.0187465
-0.017465
-0.0172716
-0.015915
-0.0558237
-0.056406
-0.0580216
-0.0664661
-0.0665853
-0.0660682
-0.066209
-0.0536534
-0.0554464
-0.0561139
-0.0652347
-0.0653131
-0.0646238
-0.0645048
-0.0551211
-0.055022
-0.0574344
-0.0653348
-0.0653583
-0.0653078
-0.0654847
-0.0507194
-0.0510662
-0.0527204
-0.0616685
-0.0616995
-0.0608882
-0.0602964
-0.0463914
-0.046139
-0.0478649
-0.0583181
-0.0584183
-0.0561238
-0.0550566
-0.0564049
-0.0557613
-0.0579212
-0.0665122
-0.0661246
-0.0666499
-0.0662566
-0.0511365
-0.0505461
-0.0525697
-0.0616344
-0.0609262
-0.0615815
-0.0602796
-0.0414818
-0.0412381
-0.0437456
-0.0531819
-0.0512963
-0.0509581
-0.0490453
-0.0351182
-0.037548
-0.0387628
-0.0448538
-0.0445087
-0.040256
-0.0402234
-0.0554119
-0.0535852
-0.0559998
-0.06535
-0.0646993
-0.0654156
-0.0646012
-0.0460828
-0.0462134
-0.0476305
-0.0582574
-0.0559098
-0.0582746
-0.0551706
-0.0374978
-0.0346425
-0.0383825
-0.0449237
-0.0406081
-0.0443843
-0.0401457
-0.0273659
-0.0270717
-0.0313435
-0.0348589
-0.034049
-0.0338481
-0.0330725
-0.0763761
-0.0764649
-0.0770913
-0.0884964
-0.0890459
-0.0894509
-0.0900303
-0.0753097
-0.0755287
-0.0757288
-0.0884644
-0.0886791
-0.0897249
-0.0898302
-0.0758412
-0.0757157
-0.0765154
-0.0884826
-0.0892794
-0.0891665
-0.0903922
-0.0730416
-0.0722449
-0.0719184
-0.0877076
-0.0881847
-0.0883349
-0.088378
-0.0705273
-0.067488
-0.0674804
-0.086445
-0.0865171
-0.0869659
-0.0858336
-0.076545
-0.076401
-0.0771049
-0.0886107
-0.0895791
-0.0891976
-0.0902017
-0.072455
-0.0728902
-0.0719832
-0.0876467
-0.0884605
-0.088027
-0.0884204
-0.0637318
-0.0636263
-0.0610259
-0.0837005
-0.0823458
-0.0820946
-0.0795642
-0.0580213
-0.0553644
-0.0543741
-0.0772026
-0.0763871
-0.0728768
-0.0730805
-0.0757195
-0.0753261
-0.0758289
-0.0886378
-0.090026
-0.0888259
-0.0900852
-0.0681057
-0.0702239
-0.0676792
-0.0863398
-0.0872253
-0.0863181
-0.0858861
-0.0550529
-0.0575142
-0.0540058
-0.0770671
-0.0731678
-0.0760968
-0.0731386
-0.0484566
-0.048309
-0.0487224
-0.0672693
-0.067167
-0.0666496
-0.0670793
-0.0993145
-0.100156
-0.101594
-0.11079
-0.112578
-0.115026
-0.117783
-0.0997995
-0.101366
-0.10208
-0.113112
-0.11399
-0.119601
-0.120992
-0.100569
-0.100412
-0.102724
-0.112465
-0.11607
-0.115943
-0.121459
-0.10201
-0.101794
-0.103284
-0.117674
-0.121544
-0.124544
-0.129447
-0.102589
-0.100683
-0.101858
-0.122229
-0.123615
-0.131421
-0.132963
-0.100283
-0.0993625
-0.101692
-0.110975
-0.115284
-0.112747
-0.118114
-0.101985
-0.101879
-0.103369
-0.11772
-0.124835
-0.121518
-0.129672
-0.100172
-0.0999986
-0.0988539
-0.126454
-0.132697
-0.132325
-0.135852
-0.099459
-0.0950305
-0.0934924
-0.130967
-0.13234
-0.134033
-0.134293
-0.101576
-0.099848
-0.102219
-0.113382
-0.120038
-0.114226
-0.121486
-0.10074
-0.10244
-0.101711
-0.122446
-0.131843
-0.123764
-0.133711
-0.0952848
-0.099141
-0.0928805
-0.130932
-0.134758
-0.131572
-0.135425
-0.092591
-0.092218
-0.0894604
-0.128224
-0.127651
-0.125886
-0.12627
-0.120999
-0.124392
-0.128575
-0.131424
-0.134529
-0.139599
-0.145376
-0.124054
-0.130552
-0.132705
-0.136387
-0.13789
-0.151212
-0.154644
-0.126667
-0.126468
-0.134065
-0.134093
-0.140784
-0.140708
-0.154281
-0.137052
-0.139882
-0.147857
-0.147208
-0.157804
-0.167533
-0.183552
-0.144197
-0.149097
-0.152728
-0.162862
-0.166744
-0.196058
-0.201517
-0.124699
-0.121147
-0.128842
-0.131565
-0.139866
-0.134708
-0.145705
-0.140383
-0.136884
-0.148095
-0.14737
-0.167971
-0.157942
-0.184268
-0.158858
-0.158399
-0.165212
-0.181956
-0.208872
-0.208273
-0.236499
-0.17104
-0.163254
-0.163777
-0.215169
-0.215815
-0.245916
-0.24123
-0.131042
-0.124277
-0.133211
-0.136648
-0.151805
-0.138204
-0.155446
-0.15016
-0.144117
-0.153787
-0.163413
-0.197059
-0.167476
-0.204523
-0.165331
-0.170841
-0.163738
-0.215725
-0.246109
-0.21776
-0.252399
-0.172504
-0.172014
-0.162112
-0.23357
-0.258496
-0.261815
-0.240362
-0.130494
-0.136797
-0.146817
-0.1339
-0.138014
-0.150785
-0.160895
-0.138072
-0.152963
-0.158176
-0.135956
-0.140187
-0.172825
-0.174806
-0.143197
-0.143018
-0.165248
-0.141064
-0.154104
-0.153929
-0.170653
-0.174998
-0.180878
-0.203905
-0.162319
-0.177166
-0.191041
-0.225168
-0.188472
-0.20338
-0.215479
-0.178475
-0.199234
-0.265298
-0.284144
-0.137469
-0.130998
-0.147668
-0.133998
-0.150795
-0.138337
-0.161381
-0.181821
-0.175181
-0.204931
-0.162755
-0.19234
-0.176902
-0.226681
-0.242096
-0.242321
-0.294293
-0.235067
-0.308609
-0.304183
-0.377085
-0.269799
-0.3456
-0.404901
-0.332234
-0.36971
-0.394409
-0.407155
-0.15414
-0.138878
-0.15918
-0.135755
-0.170859
-0.140935
-0.174256
-0.206797
-0.188553
-0.218953
-0.180962
-0.269199
-0.203578
-0.286916
-0.345961
-0.271312
-0.406439
-0.332994
-0.398533
-0.375213
-0.41369
-0.231377
-0.234623
-0.269375
-0.417503
-0.12041
-0.130299
-0.143064
-0.136033
-0.153833
-0.160779
-0.136575
-0.136615
-0.160686
-0.173858
-0.197939
-0.266364
-0.203273
-0.306213
-0.303214
-0.131391
-0.121037
-0.143727
-0.198774
-0.174576
-0.26489
-0.298619
-0.299923
-0.487231
-0.328093
-0.436028
-0.157082
-0.136833
-0.163115
-0.308811
-0.203432
-0.301505
-0.433901
-0.333858
-0.22196
-0.39971
-0.388246
-0.403139
-0.382311
-0.386277
-0.241893
-0.228114
-0.408669
-0.406724
-0.393893
-0.392036
-0.389744
-0.24942
-0.29823
-0.195416
-0.322815
-0.30236
-0.298547
-0.293831
-0.299299
-0.297214
-0.196932
-0.321096
-0.3038
-0.295849
-0.295543
-0.299152
-0.285082
-0.252253
-0.253574
-0.258791
-0.229553
-0.277381
-0.277869
-0.340895
-0.262617
-0.419609
-0.420322
-0.273507
-0.281731
-0.313274
-0.264786
-0.242797
-0.309622
-0.311309
-0.272034
-0.246919
-0.306666
-0.290503
-0.26527
-0.267586
-0.599805
-0.319831
-0.472814
-0.457749
-0.469967
-0.442659
-0.63383
-0.573397
-0.434944
-0.514235
-0.372652
-0.509109
-0.601098
-0.37485
-0.28081
-0.592616
-0.674798
-0.433892
-0.515718
-0.542299
-0.379161
-0.50343
-0.521854
-0.324289
-0.477172
-0.461241
-0.475242
-0.447401
-0.637585
-0.384433
-0.28683
-0.594112
-0.0998625
-0.100439
-0.101658
-0.103626
-0.100491
-0.101243
-0.107722
-0.110372
-0.0985305
-0.0987335
-0.099511
-0.0983555
-0.10217
-0.105214
-0.112377
-0.100203
-0.0984092
-0.105129
-0.10249
-0.112687
-0.101866
-0.101226
-0.104182
-0.100668
-0.108007
-0.101917
-0.111198
-0.105092
-0.112178
-0.127978
-0.140782
-0.114617
-0.11964
-0.161232
-0.113622
-0.133454
-0.134024
-0.160024
-0.15138
-0.181588
-0.210943
-0.105235
-0.128135
-0.113051
-0.141929
-0.151456
-0.210401
-0.183888
-0.11446
-0.162483
-0.120416
-0.443289
-0.56748
-0.550844
-0.555063
-0.552455
-0.390597
-0.418447
-0.516742
-0.592936
-0.472848
-0.461956
-0.522192
-0.543956
-0.522645
-0.584673
-0.577777
-0.607186
-0.398333
-0.518123
-0.421742
-0.668321
-0.60829
-0.528316
-0.509472
-0.478058
-0.46805
-0.529317
-0.58196
-0.300743
-0.270441
-0.273381
-0.290661
-0.399647
-0.310951
-0.316047
-0.368076
-0.413828
-0.530279
-0.309992
-0.337196
-0.424227
-0.468168
-0.472667
-0.373705
-0.53033
-0.31051
-0.42781
-0.343228
-0.472445
-0.457504
-0.477762
-0.542149
-0.279286
-0.369106
-0.364161
-0.396834
-0.214281
-0.421138
-0.385461
-0.326859
-0.386084
-0.405986
-0.405642
-0.380522
-0.405408
-0.33673
-0.28546
-0.368964
-0.366728
-0.399986
-0.217156
-0.427348
-0.390847
-0.331157
-0.392007
-0.411925
-0.410919
-0.388009
-0.410917
-0.341359
-0.335983
-0.334082
-0.339505
-0.338855
-0.485141
-0.413853
-0.509143
-0.52666
-0.409685
-0.412676
-0.34449
-0.414586
-0.409935
-0.420652
-0.415437
-0.4834
-0.35264
-0.408163
-0.376723
-0.397024
-0.314276
-0.398169
-0.414802
-0.356841
-0.413822
-0.384622
-0.401234
-0.318353
-0.403871
-0.419849
-0.293101
-0.244947
-0.282852
-0.282715
-0.27195
-0.270839
-0.279708
-0.262539
-0.254036
-0.263884
-0.263909
-0.269001
-0.258886
-0.257847
-0.276104
-0.280337
-0.252771
-0.268837
-0.255256
-0.271688
-0.273123
-0.277326
-0.280431
-0.252377
-0.268922
-0.255492
-0.272023
-0.273121
-0.32607
-0.32353
-0.325407
-0.343796
-0.298794
-0.331141
-0.332891
-0.35903
-0.376782
-0.328138
-0.406494
-0.340128
-0.386585
-0.356362
-0.381374
-0.333568
-0.40991
-0.345041
-0.387298
-0.3547
-0.330534
-0.295847
-0.319728
-0.301557
-0.329413
-0.34649
-0.333964
-0.264851
-0.341857
-0.336109
-0.339296
-0.345324
-0.325102
-0.342898
-0.372078
-0.341816
-0.340192
-0.268605
-0.334957
-0.333515
-0.349248
-0.333393
-0.310461
-0.29887
-0.297103
-0.33091
-0.295465
-0.317164
-0.302484
-0.329223
-0.343948
-0.335048
-0.271333
-0.331914
-0.337452
-0.331088
-0.339298
-0.331039
-0.345105
-0.370192
-0.339569
-0.328079
-0.274829
-0.337946
-0.336615
-0.341408
-0.332275
-0.308119
-0.29827
-0.297434
-0.287875
-0.287766
-0.274129
-0.267498
-0.26794
-0.651405
-0.680997
-0.613377
-0.510543
-0.469188
-0.422951
-0.580471
-0.44705
-0.483532
-0.426817
-0.510251
-0.404643
-0.471636
-0.691662
-0.559385
-0.629751
-0.469577
-0.47818
-0.577718
-0.464039
-0.53028
-0.613181
-0.614131
-0.421861
-0.462349
-0.538575
-0.50649
-0.486472
-0.354735
-0.443759
-0.481765
-0.439879
-0.499235
-0.41282
-0.425078
-0.493643
-0.509108
-0.491986
-0.37313
-0.485782
-0.499159
-0.474068
-0.48635
-0.605463
-0.517522
-0.512881
-0.640705
-0.575006
-0.618421
-0.516023
-0.480185
-0.432661
-0.588562
-0.448765
-0.474975
-0.433137
-0.516426
-0.402879
-0.476541
-0.695833
-0.614622
-0.487168
-0.481048
-0.590722
-0.467825
-0.536885
-0.612468
-0.626758
-0.613586
-0.423754
-0.538334
-0.466389
-0.417193
-0.429619
-0.496521
-0.510979
-0.492656
-0.358787
-0.44822
-0.487317
-0.443828
-0.503512
-0.51434
-0.495146
-0.491687
-0.380694
-0.503157
-0.491741
-0.48055
-0.612204
-0.524539
-0.517927
-0.662649
-0.655766
-0.730184
-0.584555
-0.686522
-0.646725
-0.637159
-0.531036
-0.506833
-0.629314
-0.572684
-0.604711
-0.545387
-0.580832
-0.52023
-0.522388
-0.535278
-0.559802
-0.686421
-0.690951
-0.568933
-0.618133
-0.6578
-0.534822
-0.747968
-0.678963
-0.666406
-0.632199
-0.598358
-0.707107
-0.569283
-0.566911
-0.605928
-0.70441
-0.555826
-0.672826
-0.649518
-0.610936
-0.629893
-0.688599
-0.563913
-0.620312
-0.546242
-0.534148
-0.744585
-0.686286
-0.666657
-0.633588
-0.710065
-0.609171
-0.573777
-0.579056
-0.700543
-0.556233
-0.669006
-0.652824
-0.533606
-0.596119
-0.626591
-0.580562
-0.613427
-0.551373
-0.593897
-0.538874
-0.526156
-0.523735
-0.565506
-0.690157
-0.700419
-0.574049
-0.582479
-0.612084
-0.640021
-0.718519
-0.568431
-0.169477
-0.217879
-0.187206
-0.20633
-0.28808
-0.222034
-0.226176
-0.321025
-0.305263
-0.170949
-0.186502
-0.207664
-0.287521
-0.607215
-0.686256
-0.600289
-0.690288
-0.638383
-0.615743
-0.668819
-0.735796
-0.723286
-0.686494
-0.60477
-0.719264
-0.679494
-0.734576
-0.68558
-0.686533
-0.616389
-0.673846
-0.678869
-0.622278
-0.708561
-0.688966
-0.594655
-0.728029
-0.659047
-0.618768
-0.673163
-0.725214
-0.605416
-0.676208
-0.598711
-0.677386
-0.61961
-0.678071
-0.682997
-0.625848
-0.421199
-0.289201
-0.357216
-0.350992
-0.374233
-0.364155
-0.375759
-0.524147
-0.284954
-0.535358
-0.537411
-0.514387
-0.447301
-0.506521
-0.527257
-0.287748
-0.538693
-0.534608
-0.519388
-0.473393
-0.499147
-0.168451
-0.246107
-0.245433
-0.244994
-0.249415
-0.209953
-0.211554
-0.109553
-0.510296
-0.376321
-0.377743
-0.349868
-0.352296
-0.343959
-0.321969
-0.167053
-0.369686
-0.299806
-0.101366
-0.303346
-0.335095
-0.472602
-0.165651
-0.367921
-0.362201
-0.11743
-0.367734
-0.513231
-0.324994
-0.371329
-0.177931
-0.299049
-0.109133
-0.304297
-0.337224
-0.476813
-0.172442
-0.371492
-0.365806
-0.122387
-0.371486
-0.516994
-0.288169
-0.28032
-0.320117
-0.299257
-0.26231
-0.311104
-0.305952
-0.276699
-0.300769
-0.29505
-0.306885
-0.295151
-0.312682
-0.272456
-0.286471
-0.282116
-0.319549
-0.299044
-0.259824
-0.311903
-0.307606
-0.275012
-0.300601
-0.296169
-0.307568
-0.297484
-0.31337
-0.270203
-0.36475
-0.368713
-0.250355
-0.332373
-0.361647
-0.347712
-0.337806
-0.363942
-0.366842
-0.260688
-0.338697
-0.346343
-0.355622
-0.337008
-0.539002
-0.517193
-0.561716
-0.414197
-0.597903
-0.352501
-0.637284
-0.626999
-0.538163
-0.542779
-0.369448
-0.65098
-0.626937
-0.393144
-0.502013
-0.489708
-0.259069
-0.571439
-0.432237
-0.533551
-0.449116
-0.568408
-0.613369
-0.62759
-0.598424
-0.325636
-0.473486
-0.555734
-0.508376
-0.496034
-0.263503
-0.581761
-0.436109
-0.535637
-0.453134
-0.612241
-0.605202
-0.568771
-0.607564
-0.330909
-0.49527
-0.555397
-0.541787
-0.609648
-0.567399
-0.417666
-0.598797
-0.357034
-0.641402
-0.546547
-0.542427
-0.631155
-0.374878
-0.655578
-0.63021
-0.397561
-0.589834
-0.603668
-0.429733
-0.645057
-0.503272
-0.675043
-0.523538
-0.59575
-0.556336
-0.433149
-0.504806
-0.644878
-0.676995
-0.527715
-0.371156
-0.434459
-0.420638
-0.369167
-0.412773
-0.42184
-0.282594
-0.384688
-0.443287
-0.425017
-0.371196
-0.419254
-0.425776
-0.285085
-0.516742
-0.556229
-0.563166
-0.669659
-0.579409
-0.58979
-0.331029
-0.296523
-0.376145
-0.389114
-0.38469
-0.348457
-0.447781
-0.376672
-0.349255
-0.46405
-0.379514
-0.297374
-0.392027
-0.538594
-0.644153
-0.572951
-0.623187
-0.540237
-0.644617
-0.625878
-0.574007
-0.270552
-0.175144
-0.259521
-0.246941
-0.136711
-0.251484
-0.28166
-0.256646
-0.178329
-0.264498
-0.250634
-0.142175
-0.256523
-0.272624
-0.333584
-0.028461
-0.437456
-0.326854
-0.213552
-0.305883
-0.308752
-0.501734
-0.10677
-0.355879
-0.360905
-0.230346
-0.412
-0.370639
-0.337872
-0.0297467
-0.437228
-0.325103
-0.242284
-0.305593
-0.304564
-0.504662
-0.110854
-0.363155
-0.362185
-0.413852
-0.244687
-0.370076
-0.317482
-0.341912
-0.348974
-0.367542
-0.271828
-0.366053
-0.259484
-0.373092
-0.362915
-0.428241
-0.327733
-0.256701
-0.470433
-0.377498
-0.373186
-0.359979
-0.426723
-0.327826
-0.252729
-0.472796
-0.375704
-0.344348
-0.316938
-0.351764
-0.370351
-0.369131
-0.274963
-0.261624
-0.274014
-0.283588
-0.331535
-0.339734
-0.276419
-0.282432
-0.334588
-0.340346
-0.401252
-0.405154
-0.409552
-0.419746
-0.423204
-0.427211
-0.406906
-0.4105
-0.415137
-0.424348
-0.427864
-0.431929
-0.3584
-0.363774
-0.366196
-0.360116
-0.365162
-0.367323
-0.439794
-0.440989
-0.445169
-0.447782
-0.448379
-0.45281
-0.412666
-0.424634
-0.428447
-0.477951
-0.479725
-0.486074
-0.416629
-0.428782
-0.43284
-0.474997
-0.480532
-0.486224
-0.409522
-0.414322
-0.419138
-0.432643
-0.439468
-0.443263
-0.411016
-0.417557
-0.423099
-0.437177
-0.443875
-0.44775
-0.247216
-0.243141
-0.238044
-0.405231
-0.410568
-0.414276
-0.432183
-0.433161
-0.43604
-0.408128
-0.414588
-0.418631
-0.433277
-0.434504
-0.437766
-0.304275
-0.30524
-0.303893
-0.364363
-0.367963
-0.370258
-0.304028
-0.303904
-0.303017
-0.303643
-0.304635
-0.303579
-0.367326
-0.371233
-0.373055
-0.301966
-0.301063
-0.299503
-0.29856
-0.298837
-0.297862
-0.281508
-0.273987
-0.271709
-0.271142
-0.268737
-0.26589
-0.284416
-0.276976
-0.27554
-0.272582
-0.270739
-0.26832
-0.48941
-0.4927
-0.498126
-0.473503
-0.489795
-0.497885
-0.638961
-0.64975
-0.66011
-0.637995
-0.6465
-0.653058
-0.555026
-0.587626
-0.597418
-0.605978
-0.618357
-0.630304
-0.448232
-0.448882
-0.45443
-0.620932
-0.629995
-0.64257
-0.636318
-0.657196
-0.668291
-0.629224
-0.643363
-0.654555
-0.488631
-0.491847
-0.497408
-0.487584
-0.505985
-0.51423
-0.627063
-0.636438
-0.648556
-0.55927
-0.595882
-0.605042
-0.449842
-0.450575
-0.45624
-0.619465
-0.628015
-0.640023
-0.656215
-0.666286
-0.674172
-0.644569
-0.65405
-0.665585
-0.602015
-0.613393
-0.619804
-0.659949
-0.699409
-0.710958
-0.664572
-0.68378
-0.690898
-0.696272
-0.75137
-0.774752
-0.65947
-0.668452
-0.675964
-0.653103
-0.660695
-0.671261
-0.640875
-0.652364
-0.664347
-0.615493
-0.626103
-0.634103
-0.658902
-0.697275
-0.708038
-0.488987
-0.484754
-0.486112
-0.446651
-0.468922
-0.476152
-0.459033
-0.468314
-0.472926
-0.49837
-0.493109
-0.494861
-0.461789
-0.48262
-0.489702
-0.463294
-0.474374
-0.479689
-0.522492
-0.527181
-0.535492
-0.529757
-0.533471
-0.541056
-0.430933
-0.433156
-0.436163
-0.509442
-0.519715
-0.52949
-0.506422
-0.519257
-0.528778
-0.402008
-0.405874
-0.410254
-0.420111
-0.423738
-0.427725
-0.407099
-0.410547
-0.41522
-0.424544
-0.428204
-0.432228
-0.367979
-0.364305
-0.366687
-0.345215
-0.344984
-0.345427
-0.366893
-0.363648
-0.365869
-0.357565
-0.362638
-0.364942
-0.34508
-0.344475
-0.344769
-0.371083
-0.367447
-0.370177
-0.344102
-0.343687
-0.343941
-0.367328
-0.363904
-0.366248
-0.359878
-0.365031
-0.367053
-0.342945
-0.34213
-0.342453
-0.45104
-0.46324
-0.467524
-0.501345
-0.507641
-0.514352
-0.447775
-0.459016
-0.463391
-0.437148
-0.438774
-0.442834
-0.498575
-0.50437
-0.511355
-0.452257
-0.464318
-0.46872
-0.509739
-0.51613
-0.522973
-0.444611
-0.446025
-0.450265
-0.451004
-0.462358
-0.466896
-0.503773
-0.509358
-0.516401
-0.405891
-0.416099
-0.420263
-0.445176
-0.457587
-0.465254
-0.39988
-0.409797
-0.412135
-0.505687
-0.51363
-0.519091
-0.411234
-0.422252
-0.426445
-0.446047
-0.459288
-0.466527
-0.401384
-0.411787
-0.414545
-0.495656
-0.504975
-0.509967
-0.536583
-0.567896
-0.577957
-0.63734
-0.641853
-0.647929
-0.626075
-0.632609
-0.637039
-0.535907
-0.54863
-0.555399
-0.539305
-0.552574
-0.559542
-0.556014
-0.565401
-0.571974
-0.557309
-0.566161
-0.572715
-0.409808
-0.413914
-0.418574
-0.432464
-0.436777
-0.440643
-0.414947
-0.418786
-0.423503
-0.436597
-0.441445
-0.445556
-0.252765
-0.248904
-0.244082
-0.25281
-0.249018
-0.244224
-0.260503
-0.257129
-0.25294
-0.261682
-0.256523
-0.251599
-0.261692
-0.255638
-0.249837
-0.261549
-0.256398
-0.251434
-0.262868
-0.257092
-0.251637
-0.341266
-0.342259
-0.343224
-0.342713
-0.344459
-0.346596
-0.341928
-0.343586
-0.345686
-0.338394
-0.340725
-0.341955
-0.339726
-0.341915
-0.343066
-0.412318
-0.413551
-0.415042
-0.375488
-0.380627
-0.38265
-0.402022
-0.404594
-0.407107
-0.375793
-0.379636
-0.38215
-0.411072
-0.412927
-0.414645
-0.37651
-0.382507
-0.384717
-0.403845
-0.406496
-0.409491
-0.378375
-0.381631
-0.384171
-0.348562
-0.355968
-0.359319
-0.365866
-0.368501
-0.369909
-0.3664
-0.368992
-0.370472
-0.336701
-0.338718
-0.340846
-0.325964
-0.327669
-0.326707
-0.333008
-0.334122
-0.334676
-0.338852
-0.341443
-0.343023
-0.310997
-0.311338
-0.310371
-0.326667
-0.329774
-0.33023
-0.338355
-0.341326
-0.343462
-0.336578
-0.338906
-0.340711
-0.378524
-0.374618
-0.3764
-0.380334
-0.37855
-0.379241
-0.346318
-0.346453
-0.34739
-0.362491
-0.367711
-0.370195
-0.366678
-0.370867
-0.371666
-0.353276
-0.357872
-0.361121
-0.295963
-0.295476
-0.294187
-0.306241
-0.30644
-0.305658
-0.301333
-0.301059
-0.300113
-0.33105
-0.332792
-0.333714
-0.330906
-0.331686
-0.331822
-0.333685
-0.334959
-0.335592
-0.336121
-0.338803
-0.340052
-0.310348
-0.310739
-0.309998
-0.327356
-0.330065
-0.330753
-0.339865
-0.343674
-0.346744
-0.333899
-0.335301
-0.336282
-0.380099
-0.377346
-0.379934
-0.378854
-0.377501
-0.378603
-0.343247
-0.342708
-0.343139
-0.364061
-0.369344
-0.37145
-0.365037
-0.369783
-0.370962
-0.355213
-0.357537
-0.360107
-0.300147
-0.298418
-0.296688
-0.304869
-0.304945
-0.304273
-0.304764
-0.304601
-0.304489
-0.271824
-0.266998
-0.262699
-0.289879
-0.288168
-0.285967
-0.289825
-0.288023
-0.285817
-0.285711
-0.279242
-0.278667
-0.2865
-0.280124
-0.279554
-0.29136
-0.284523
-0.283058
-0.271408
-0.268555
-0.26583
-0.2899
-0.282969
-0.281303
-0.272376
-0.269719
-0.267306
-0.610219
-0.626822
-0.637664
-0.63218
-0.646215
-0.658111
-0.634858
-0.657566
-0.668702
-0.566907
-0.576741
-0.585711
-0.533348
-0.536775
-0.540943
-0.513429
-0.517005
-0.521222
-0.488066
-0.51518
-0.524933
-0.509306
-0.529439
-0.53699
-0.626552
-0.642356
-0.653061
-0.604666
-0.655868
-0.672583
-0.569167
-0.574698
-0.581234
-0.519804
-0.563065
-0.573912
-0.551154
-0.559053
-0.563039
-0.553864
-0.563871
-0.568878
-0.60634
-0.613903
-0.623273
-0.572272
-0.612733
-0.624529
-0.577132
-0.612885
-0.625832
-0.574115
-0.57708
-0.584969
-0.590471
-0.606489
-0.613392
-0.539532
-0.550984
-0.558247
-0.536782
-0.56257
-0.570902
-0.528527
-0.548268
-0.554396
-0.462563
-0.47662
-0.481456
-0.504589
-0.512257
-0.515975
-0.498173
-0.508224
-0.517575
-0.453754
-0.455199
-0.459356
-0.502854
-0.504462
-0.509471
-0.482867
-0.505282
-0.512438
-0.62386
-0.63577
-0.649521
-0.543637
-0.546547
-0.556401
-0.565993
-0.56771
-0.579546
-0.607356
-0.623215
-0.633779
-0.571523
-0.581864
-0.59121
-0.531508
-0.536471
-0.539858
-0.50819
-0.511641
-0.514968
-0.507157
-0.537478
-0.548043
-0.519581
-0.539773
-0.547343
-0.632764
-0.644287
-0.653182
-0.620102
-0.63901
-0.649449
-0.626664
-0.637945
-0.6432
-0.571532
-0.608169
-0.620214
-0.606248
-0.656944
-0.673721
-0.569658
-0.576914
-0.583297
-0.526656
-0.569915
-0.581412
-0.551598
-0.558995
-0.562861
-0.561061
-0.569541
-0.575635
-0.61896
-0.631653
-0.644392
-0.577477
-0.612058
-0.624299
-0.580655
-0.583536
-0.59154
-0.588891
-0.604493
-0.611431
-0.544425
-0.556066
-0.563625
-0.465643
-0.479742
-0.484719
-0.50859