/*--------------------------------*- C++ -*----------------------------------*\
| =========                 |                                                 |
| \\      /  F ield         | OpenFOAM: The Open Source CFD Toolbox           |
|  \\    /   O peration     | Version:  2.2.2                                 |
|   \\  /    A nd           | Web:      www.OpenFOAM.org                      |
|    \\/     M anipulation  |                                                 |
\*---------------------------------------------------------------------------*/
FoamFile
{
    version     2.0;
    format      ascii;
    class       volScalarField;
    location    "0.922666";
    object      T;
}
// * * * * * * * * * * * * * * * * * * * * * * * * * * * * * * * * * * * * * //

dimensions      [0 0 0 1 0 0 0];

internalField   nonuniform List<scalar> 
25373
(
300
300
300.001
300.005
300
300.001
300.034
300.298
300.001
300.034
300.808
305.127
300
300.005
300.285
304.926
318.945
300
300
300
300.002
300
300.001
300.026
300.264
300
300.026
300.798
305.53
300
300.002
300.252
305.322
320.728
300
300
300
300
300
300
300
299.986
300
300
299.968
300.575
300
300
299.986
300.543
313.48
300
300
300
300
300
300
300.001
300.028
300
300.001
300.099
302.07
300
300
300.027
302.007
317.237
300
300
300
300
300
300
300.001
300.023
300
300.001
300.094
302.257
300
300
300.022
302.192
319.355
300
300
300
300
300
300
300
300.018
300
300
300.087
302.551
300
300
300.018
302.477
322.569
300
300
300
300
300
300
300
300.014
300
300
300.077
302.957
300
300
300.014
302.894
327.69
300
300
300
300
300
300
300
300.01
300
300
300.061
303.469
300
300
300.009
303.438
336.698
300
300
300
300
300
300
300
300.006
300
300
300.039
303.892
300
300
300.005
303.886
343.757
300
300
300
300
300
300
300
300.002
300
300
300.015
304.18
300
300
300.002
301.476
362.869
300
300
300
300
300
300
300
300
300
300
300
300
300
300
300
300
300
300
300
300
300
300
300
300
300
300
300
300
300
300
300
300
300
300
300
300
300
300
300
300
300
300
300
300
300
300
300
300
300
300
300
300
300
300
300
300
300
300
300
300
300
300
300
300
300
300
300
300
300
300
300
300
300
300
300
300
300
300
300
300
300
300
300
300
300
300
300
300
300
300
300
300
300
300
300
300
300
300
300
300
300
300
300
300
300
300
300
300
300
300
300
300
300
300
300
300
300
300
300
300
300
300
300
300
300
300
300
300
300
300
300
300
300
300
300
300
300
300
300
300
300
300
300
300
300
300
300
300
300
300
300
300
300
300
300
300
300
300
300
300
300
300
300
300
300
300
300
300
300
300
300
300
300
300
300
300
300
300
300
300
300
300
300
300
300
300
300
300
300
300
300
300
300
300
300
300
300
300
300
300
300
300
300
300
300
300
300
300
300
300
300
300
300
300
300
300
300
300
300
300
300
300
300
300
300
300
300
300
300
300
300
300
300
300
300
300
300
300
300
300
300
300
300
300
300
300
300
300
300
300
300
300
300
300
300
300
300
300
300
300
300
300
300
300
300
300
300
300
300
300
300
300
300
300
300
300
300
300
300
300
300
300
300
300
300
300
300
300
300
300
300
300
300
300
300
300
300
300
300
300
300
300
300
300
300
300
300
300
300
300
300
300
300
300
300
300
300
300
300
300
300
300
300
300
300
300
300
300
300
300
300
300
300
300
300
300
300
300
300
300
300
300
300
300
300
300
300
300
300
300
300
300
300
300
300
300
300
300
300
300
300
300
300
300
300
300
300
300
300
300
300
300
300
300
300
300
300
300
300
300
300
300
300
300
300
300
300
300
300
300
300
300
300
300
300
300
300
300
300
300
300
300
300
300
300
300
300
300
300
300
300
300
300
300
300
300
300
300
300
300
300
300
300
300
300
300
300
300
300
300
300
300
300
300
300
300
300
300
300
300
300
300
300
300
300
300
300
300
300
300
300
300
300
300
300
300
300
300
300
300
300
300
300
300
300
300
300
300
300
300
300
300
300
300
300
300.001
300
300
300
300
300
300.002
300.005
300
300
300.002
300.005
300
300
300.002
300
300
300
300.001
299.999
300.007
300.102
300.001
300.007
300.013
300.077
299.994
300.312
300.823
300.031
300.071
300.319
300.672
300
300
300.001
300
300
300
300
300.007
299.999
300.099
300.001
300.012
300.007
300.075
300.449
300.437
302.863
300.102
300.568
300.559
302.435
302.945
307.138
315.067
302.022
303.925
307.237
312.991
300.002
300
300.005
300
300.002
300
300.005
300.3
299.994
300.785
300.03
300.307
300.067
300.641
307.071
302.764
314.369
301.958
307.032
303.731
312.424
321.951
321.592
330.494
316.719
323.21
322.868
328.172
300
300
300
300
300
300
300
300
300.002
300.004
300
300
300.002
300.004
300
300
300.001
300
300
300
300.001
300.006
300.011
300.074
300.001
300.006
300.01
300.07
300.064
300.308
300.664
300.026
300.06
300.302
300.66
300
300
300
300
300
300
300
300.011
300.006
300.072
300.001
300.01
300.005
300.069
300.569
300.56
302.571
300.095
300.575
300.567
302.661
304.017
307.765
314.113
302.147
304.244
308.109
314.648
300.002
300
300.004
300
300.002
300
300.004
300.296
300.061
300.634
300.025
300.291
300.058
300.63
307.648
303.824
313.542
302.085
307.932
304.048
314.072
323.754
323.425
329.06
318.375
324.91
324.603
329.625
300
300
300
300
300
300
300
300
300.001
300.003
300
300
300.001
300.003
300
300
300.001
300
300
300
300.001
300.005
300.009
300.067
300.001
300.004
300.008
300.064
300.054
300.295
300.651
300.021
300.05
300.288
300.648
300
300
300
300
300
300
300
300.009
300.005
300.065
300.001
300.008
300.004
300.063
300.593
300.585
302.855
300.089
300.609
300.601
303.072
304.426
308.813
315.91
302.38
304.769
309.508
317.091
300.001
300
300.003
300
300.001
300
300.003
300.284
300.052
300.624
300.021
300.281
300.049
300.627
308.695
304.22
315.328
302.318
309.345
304.574
316.519
325.797
325.516
330.456
320.84
327.267
327.024
331.352
300
300
300
300
300
300
300
300
300.001
300.002
300
300
300.001
300.002
300
300
300.001
300
300
300
300
300.004
300.007
300.059
300
300.003
300.006
300.055
300.045
300.28
300.642
300.017
300.041
300.27
300.636
300
300
300
300
300
300
300
300.007
300.003
300.059
300
300.006
300.003
300.055
300.631
300.624
303.365
300.081
300.653
300.649
303.769
305.06
310.588
318.774
302.721
305.528
311.823
320.803
300.001
300
300.002
300
300.001
300
300.002
300.274
300.044
300.621
300.017
300.266
300.04
300.616
310.456
304.832
318.163
302.668
311.691
305.314
320.199
328.645
328.44
332.273
324.805
330.63
330.499
333.491
300
300
300
300
300
300
300
300
300.001
300.001
300
300
300
300.001
300
300
300
300
300
300
300
300.002
300.005
300.05
300
300.002
300.004
300.045
300.035
300.259
300.616
300.012
300.031
300.242
300.602
300
300
300
300
300
300
300
300.005
300.002
300.05
300
300.004
300.002
300.045
300.678
300.673
304.237
300.07
300.701
300.696
304.911
305.936
313.526
323.256
303.2
306.603
315.714
326.554
300.001
300
300.001
300
300
300
300.001
300.255
300.034
300.604
300.012
300.239
300.03
300.59
313.373
305.74
322.598
303.153
315.589
306.432
326
332.786
332.699
334.697
331.615
335.816
335.869
336.388
300
300
300
300
300
300
300
300
300
300.001
300
300
300
300.001
300
300
300
300
300
300
300
300.001
300.003
300.038
300
300.001
300.003
300.032
300.025
300.219
300.565
300.008
300.02
300.189
300.518
300
300
300
300
300
300
300
300.003
300.001
300.038
300
300.003
300.001
300.032
300.705
300.704
305.637
300.051
300.702
300.702
306.549
307.23
318.481
330.578
303.735
308.028
322.188
336.294
300
300
300.001
300
300
300
300.001
300.217
300.024
300.558
300.008
300.188
300.019
300.512
318.433
307.102
330.179
303.703
322.155
307.887
335.983
339.515
339.632
338.392
344.626
348.848
349.665
340.362
300
300
300
300
300
300
300
300
300
300
300
300
300
300
300
300
300
300
300
300
300
300.001
300.002
300.023
300
300.001
300.001
300.016
300.014
300.151
300.458
300.004
300.009
300.119
300.388
300
300
300
300
300
300
300
300.002
300.001
300.023
300
300.001
300.001
300.015
300.658
300.665
307.581
300.026
300.618
300.62
320.838
308.548
329.815
358.658
300.95
303.98
341.695
382.573
300
300
300
300
300
300
300
300.152
300.013
300.46
300.004
300.119
300.009
300.388
329.642
308.457
358.96
300.959
341.539
303.961
382.386
355.609
356.455
342.334
357.131
300
300
300
300
300
300
300
300
300
300
300.001
300.008
300.004
300.107
300.066
300
300
300
300.001
300
300.008
300.055
300.056
306.599
303.679
350.361
300
300
300
300.107
300.004
300.066
350.043
303.703
338.196
367.648
346.211
378.081
362.47
341.481
343.529
337.697
366.983
377.778
345.879
361.786
341.22
342.932
362.239
357.118
347.607
362.733
350.235
363.513
359.82
362.48
357.653
348.238
363.64
350.591
363.989
360.603
360.048
343.459
343.746
361.865
345.221
359.726
360.377
374.893
353.169
381.271
381.291
366.244
366.248
373.733
371.826
369.212
372.989
373.904
372.165
369.148
373.6
373.036
373.368
374.252
326.833
302.799
320.79
303.321
317.094
302.46
331.552
328.936
319.575
378.013
330.651
311.928
351.012
345.351
335.972
354.55
363.48
319.462
377.751
344.592
330.779
311.846
310.004
302.824
320.663
303.335
317.108
302.494
331.445
345.113
335.914
354.306
300
300
300
300
300
300
300
300
300
300
300
300
300
300
300
300
300
300
300
300
300
300
300
300
300
300
300
300
300
300
300
300
300
300
300
300
300
300
300
300
300.001
300
300
300
300
300
300.001
300
300
300
300
301.472
315.139
306.105
306.199
306.546
300.536
301.016
303.507
326.807
303.065
302.276
332.552
328.215
311.424
348.998
353.676
311.806
300.554
303.517
301.053
361.07
348.34
311.419
309.126
303.099
302.309
332.525
353.252
363.998
356.427
356.507
350.154
356.54
360.973
361.067
300.757
301.456
311.059
300.823
301.682
304.373
310.788
304.185
300.769
311.204
300.834
304.393
301.706
310.906
374.746
374.732
369.549
328.975
336.907
318.268
373.038
316.041
352.711
331.306
366.175
379.744
371.769
381.916
378.838
370.794
367.467
328.722
336.701
318.171
372.578
315.85
352.473
331.273
365.703
379.519
381.676
371.455
378.575
370.512
367.028
385.479
385.007
385.449
384.977
306.644
301.731
344.909
324.565
306.926
306.926
301.896
376.772
375.996
376.529
376.005
369.325
363.394
380.482
373.713
365.231
359.243
377.153
368.783
362.866
380.28
373.52
364.931
358.859
376.889
368.485
349.267
352.184
359.554
359.724
350.474
350.648
359.633
348.714
348.686
361.456
361.56
361.296
348.61
348.75
348.657
359.625
349.256
360.103
349.608
359.792
348.415
348.873
360.158
349.761
360.441
349.992
360.113
348.74
378.462
374.216
374.359
384.61
371.166
381.742
381.82
378.192
374.763
376.968
381.93
369.529
383.25
378.254
374.78
377.127
381.999
369.714
383.499
384.017
384.433
373.859
373.441
373.753
383.396
382.968
379.717
371.598
373.485
379.232
373.487
382.903
381.597
384.069
386.037
381.795
372.675
370.74
375.875
377.92
373.77
380.685
373.608
373.231
373.284
384.539
374.168
373.921
374.477
383.523
383.287
379.821
371.831
374.429
379.269
374.24
383.341
381.665
384.036
386.065
382.063
372.898
370.812
375.776
377.932
374.258
380.718
374.135
374.129
374.18
372.143
372.255
375.001
373.93
374.319
351.928
363.571
342.198
350.097
338.721
328.063
359.047
360.445
370.405
365.161
374.139
355.174
367.986
360.687
345.267
362.096
354.909
356.42
368.707
340.203
366.938
349.12
370.271
344.151
350.064
363.744
368.16
364.999
343.848
352.068
363.797
350.615
368.968
370.698
374.854
374.701
364.874
341.529
341.396
356.991
361.996
347.219
360.484
354.14
357.023
355.159
351.679
329.174
342.597
350.276
339.154
328.501
359.212
360.591
370.355
364.944
374.092
354.975
368.183
360.914
361.341
355.117
356.568
368.934
339.892
367.182
351.385
349.543
370.267
344.413
363.93
350.245
370.595
374.677
374.506
368.234
364.774
343.526
351.903
363.723
350.25
368.686
364.857
341.571
356.818
341.328
361.888
360.392
347.394
353.946
356.808
354.939
333.353
332.348
355.936
313.033
348.892
329.228
328.88
311.294
308.983
322.546
310.859
322.165
308.643
328.039
330.236
313.082
314.005
312.604
337.325
335.409
313.397
349.944
360.949
339.421
351.851
340.381
328.969
359.357
347.801
350.636
319.43
338.819
325.849
340.053
310.463
326.896
318.417
347.47
345.098
353.768
351.97
350.081
328.42
339.43
352.387
340.391
329.222
358.904
350.63
325.982
338.691
319.319
339.959
310.348
326.896
318.247
311.348
326.878
322.795
310.847
322.343
308.772
328.055
314.04
313.137
330.247
312.631
337.298
335.573
313.443
349.089
347.732
345.417
354.638
351.871
300
300.005
300
300.003
300.037
300.005
300.011
300.031
300.031
300
300
300.003
300.038
309.759
322.979
307.66
328.214
337.104
309.202
323.573
348.79
349.034
337.995
326.692
348.815
311.288
346.527
326.049
326.296
310.983
331.529
331.032
311.78
348.366
338.019
326.452
345.769
337.29
309.131
323.477
345.348
309.767
323.157
307.796
327.862
310.983
331.601
330.67
311.834
370.542
351.367
366.295
365.893
375.162
359.745
359.707
349.948
332.829
364.243
356.206
366.001
344.01
338.36
349.781
332.727
363.979
355.672
365.792
343.812
337.906
341.658
339.632
341.546
341.866
343.039
340.669
341.001
300.474
322.42
306.908
306.9
305.989
306.013
302.064
336.095
334.392
354.765
361.831
329.372
357.311
341.529
315.711
302.51
303.065
318.186
301.309
315.115
319.628
335.621
354.814
333.826
361.325
329.038
356.714
340.841
315.522
302.495
303.057
317.973
301.321
315.007
319.318
356.372
355.357
364.101
360.675
358.335
353.387
362.833
354.968
360.105
351.474
361.443
352.027
361.885
354.294
357.015
355.595
364.567
361.138
358.739
353.823
363.585
355.83
360.777
352.236
362.549
352.667
362.918
355.273
372.88
371.413
361.196
371.043
366.707
364.719
377.757
372.837
371.541
361.087
371.124
366.635
364.735
377.915
311.836
309.9
323.426
310.662
324.318
308.387
329.035
329.757
313.4
314.288
311.708
333.805
331.692
312.789
344.508
335.264
323.19
350.792
326.768
340.344
352.227
319.973
339.437
325.39
340.336
309.984
318.964
324.154
344.919
335.527
323.441
350.603
327.151
340.425
352.244
324.891
339.117
319.899
340.303
309.941
319.141
323.754
311.862
326.904
323.638
310.669
324.465
308.482
329.026
314.283
313.408
329.657
311.715
333.614
331.512
312.773
316.322
311.627
303.017
313.881
306
320.313
304.433
316.426
306.64
303.12
306.083
314.08
320.461
304.546
363.812
369.449
360.273
353.916
358.696
351.017
346.302
363.979
369.337
359.946
353.663
358.827
350.883
346.254
314.82
329.905
329.694
345.714
325.634
325.605
311.98
300.056
300.356
300.503
300.257
300.151
301.168
300.258
300.152
301.179
300.361
300.056
300.508
303.536
315.523
305.302
310.871
303.639
315.66
311.046
305.396
344.225
344.275
349.943
344.889
345.285
346.296
343.231
344.487
344.607
350.541
345.481
345.474
346.622
343.699
327.077
311.516
349.228
334.594
321.807
315.396
347.913
311.47
300.165
301.932
304.731
301.296
304.663
310.218
327.011
311.564
349.17
334.423
321.86
315.358
347.832
311.413
300.178
304.703
301.937
304.613
301.303
310.214
300.094
300.425
300.591
300.891
300.004
300.623
299.986
300.335
300.25
301.316
300.171
299.972
301.973
300.406
300.342
300.255
301.328
300.175
299.972
301.983
300.408
300.43
300.095
300.594
300.892
300.623
300.005
299.986
299.996
299.991
300.087
300.209
299.996
299.991
300.09
300.219
389.375
393.433
397.711
387.897
392.542
397.412
389.318
393.398
397.697
387.842
392.524
397.415
390.284
393.953
397.895
390.307
393.975
397.906
385.751
391.25
396.975
385.587
391.141
396.93
386.599
391.809
397.185
385.358
390.991
396.882
386.571
391.772
397.157
385.354
391.027
396.908
387.308
392.187
397.28
385.886
391.311
396.976
387.217
392.1
397.226
385.811
391.283
396.974
377.977
386.327
395.255
387.538
392.296
397.311
387.701
392.448
397.382
387.563
392.275
397.284
387.837
392.514
397.396
386.43
391.547
397.046
388.799
393.032
397.568
384.203
390.226
396.612
386.502
391.589
397.061
388.924
393.121
397.603
384.691
390.526
396.716
384.731
390.548
396.708
380.196
387.682
395.703
382.184
388.961
396.184
380.728
387.988
395.806
382.877
389.445
396.376
384.977
390.732
396.765
383.456
389.843
396.49
375.381
384.811
394.738
375.078
384.793
394.763
376.701
385.814
395.126
373.584
383.736
394.36
383.823
390.07
396.556
373.858
383.913
394.442
375.7
384.946
394.76
376.512
385.494
394.95
384.812
390.629
396.728
383.459
389.82
396.466
374.445
384.174
394.477
376.059
385.343
394.922
383.78
390.042
396.545
373.742
383.859
394.428
372.11
382.937
394.131
369.415
381.366
393.608
369.761
381.596
393.713
368.441
380.859
393.412
372.467
383.149
394.196
370.353
382.064
393.813
372.921
383.479
394.346
371.31
382.39
393.907
371.052
382.176
393.838
369.64
381.543
393.7
367.902
380.512
393.28
383.324
389.746
396.438
382.232
389.044
396.188
383.528
389.854
396.481
383.367
389.772
396.443
382.338
389.131
396.232
383.45
389.754
396.418
381.157
388.376
395.957
381.173
388.399
395.969
384.75
390.679
396.78
380.803
388.227
395.922
380.819
388.255
395.942
389.068
393.257
397.655
387.56
392.342
397.347
388.958
393.18
397.619
387.515
392.326
397.347
390.117
393.842
397.85
389.466
393.466
397.726
390.294
393.961
397.899
390.047
393.804
397.839
389.414
393.438
397.723
390.194
393.894
397.872
389.657
393.583
397.764
390.313
393.97
397.9
390.088
393.846
397.862
389.621
393.56
397.763
383.617
389.879
396.486
381.159
388.477
396.011
383.963
390.104
396.576
385.379
391.025
396.899
381.409
388.627
396.074
383.611
389.878
396.488
381.189
388.512
396.032
385.304
390.967
396.872
383.791
389.991
396.53
381.301
388.569
396.058
384.741
390.648
396.766
383.397
389.805
396.471
386.57
391.755
397.162
382.307
389.128
396.245
384.744
390.616
396.742
383.497
389.87
396.496
386.501
391.719
397.147
382.468
389.238
396.289
376.026
385.378
394.972
374.714
384.601
394.699
374.308
384.367
394.628
378.823
386.982
395.511
378.828
386.985
395.507
378.783
387.009
395.517
379.006
387.157
395.567
388.413
392.867
397.52
386.876
391.92
397.195
388.331
392.82
397.504
386.744
391.839
397.166
378.179
386.433
395.278
378.234
386.461
395.285
378.469
386.58
395.304
378.481
386.65
395.347
378.926
386.939
395.442
378.656
386.75
395.375
379.052
387.013
395.466
389.446
393.423
397.704
388.269
392.639
397.408
388.318
392.68
397.428
389.501
393.487
397.727
389.554
393.521
397.741
387.744
392.43
397.367
388.956
393.185
397.642
387.778
392.443
397.369
389.385
393.429
397.711
387.892
392.543
397.411
389.097
393.27
397.674
387.864
392.529
397.413
389.519
393.519
397.746
388.657
392.992
397.57
389.135
393.274
397.654
389.167
393.291
397.66
387.998
392.541
397.414
389.256
393.313
397.678
388.168
392.64
397.436
388.399
392.745
397.455
385.42
390.963
396.856
389.459
393.462
397.732
388.306
392.684
397.435
388.089
392.555
397.389
389.899
393.713
397.803
390.013
393.82
397.855
389.578
393.563
397.766
389.64
393.56
397.751
389.897
393.754
397.835
390.009
393.796
397.844
386.278
391.46
397.008
384.77
390.544
396.698
385.871
391.226
396.936
387.907
392.45
397.361
389.294
393.349
397.693
388.151
392.558
397.373
388.422
392.748
397.459
385.637
391.098
396.906
389.507
393.493
397.741
388.616
392.863
397.491
388.441
392.786
397.479
390.043
393.815
397.843
390.059
393.841
397.858
389.717
393.632
397.785
389.733
393.643
397.792
389.93
393.769
397.839
389.975
393.781
397.842
386.657
391.684
397.082
385.073
390.729
396.761
386.339
391.517
397.038
382.115
388.951
396.194
382.905
389.506
396.392
382.967
389.545
396.406
381.132
388.278
395.924
381.076
388.209
395.879
380.767
387.998
395.801
382.538
389.181
396.256
380.88
388.061
395.816
382.757
389.319
396.303
374.481
384.277
394.544
376.598
385.555
394.977
375.538
384.805
394.697
377.585
386.26
395.245
381.697
388.734
396.105
380.69
388.23
395.94
379.794
387.552
395.68
378.778
387.049
395.53
375.053
384.598
394.652
372.827
383.393
394.243
378.384
386.691
395.386
376.077
385.271
394.881
377.969
386.476
395.333
377.679
386.264
395.227
374.014
383.861
394.352
376.203
385.444
394.95
377.351
386.124
395.195
380.134
387.85
395.82
378.796
386.847
395.387
378.027
386.641
395.416
379.248
387.23
395.548
379.349
387.322
395.597
383.222
389.606
396.375
382.103
388.899
396.13
380.915
388.352
395.977
384.78
390.651
396.762
382.751
389.386
396.327
380.547
388.028
395.873
374.009
384
394.439
377.07
385.762
395.019
377.492
386.071
395.145
374.276
384.117
394.472
377.609
386.264
395.233
382.139
389.031
396.215
380.85
388.29
395.951
380.44
388.037
395.865
379.341
387.439
395.675
375.416
384.811
394.73
375.095
384.554
394.613
374.442
384.405
394.624
376.622
385.722
395.08
373.131
383.661
394.33
378.732
386.924
395.471
376.054
385.203
394.837
378.177
386.574
395.35
377.969
386.444
395.29
373.883
383.949
394.441
377.162
385.992
395.15
379.952
387.716
395.76
378.708
386.84
395.403
377.839
386.495
395.348
383.2
389.602
396.377
381.843
388.748
396.075
380.835
388.286
395.945
384.705
390.603
396.745
382.662
389.325
396.305
380.264
387.821
395.786
379.232
387.223
395.553
379.236
387.262
395.582
373.915
383.948
394.429
377.049
385.755
395.027
377.346
385.972
395.106
372.451
382.845
393.999
372.7
383.049
394.085
368.268
380.561
393.292
368.213
380.542
393.299
366.69
379.344
392.796
366.419
379.132
392.713
370.796
382.196
393.881
370.043
381.889
393.762
372.581
383.224
394.252
372.216
382.981
394.145
368.11
380.323
393.187
368.758
380.797
393.359
367.881
380.118
393.092
369.563
381.523
393.603
371.599
382.658
394.042
371.065
382.22
393.828
368.603
380.486
393.194
367.516
379.913
393.027
369.263
381.02
393.411
370.92
382.087
393.797
367.771
380.407
393.29
367.358
380.098
393.147
367.308
379.913
393.005
366.495
379.629
392.972
368.921
381.091
393.506
367.865
380.489
393.246
370.896
382.24
393.887
368.569
380.554
393.248
369.205
381.06
393.451
367.907
380.125
393.083
372.065
382.934
394.135
369.603
381.597
393.648
371.431
382.562
394.005
368.497
380.396
393.154
367.68
380.061
393.089
369.215
381.017
393.423
366.704
379.355
392.807
366.402
379.121
392.709
369.599
381.467
393.639
368.496
380.812
393.422
367.568
380.216
393.188
367.949
380.347
393.159
366.78
379.783
392.994
369.087
381.208
393.559
368.135
380.691
393.34
363.317
377.333
392.106
363.939
377.978
392.426
364.724
378.051
392.328
366.116
379.066
392.754
364.986
378.8
392.719
365.024
378.894
392.813
363.944
378.246
392.483
364.823
378.307
392.483
366.513
379.362
392.875
365.244
378.38
392.463
362.749
376.903
391.917
365.239
378.587
392.602
365.336
378.658
392.636
362.378
376.876
392.002
363.001
377.206
392.068
364.696
378.701
392.712
364.506
378.612
392.71
364.349
378.625
392.685
364.852
378.343
392.511
365.112
378.555
392.596
365.304
378.65
392.626
364.092
378.072
392.456
364.843
378.377
392.522
365.211
378.607
392.616
362.49
376.961
392.038
362.66
376.981
391.973
300.037
300.038
316.896
316.628
300.023
300.195
300.035
300.292
300.018
300.132
300.099
300.656
300.018
300.133
300.098
300.657
300.023
300.197
300.294
300.036
300.835
300.398
300.413
301.596
304.124
304.106
302.748
300.829
301.571
302.257
300.86
302.75
302.272
300.082
300.006
300.012
300.086
300.006
300.012
340.651
326.391
341.125
341.282
318.075
307.942
342.277
332.896
343.963
312.422
328.306
332.566
312.542
307.873
319.029
328.235
306.09
323.212
307.909
320.572
320.978
320.868
308.686
326.64
310.067
309.416
320.386
306.235
323.179
307.887
310.079
309.446
309.013
304.345
302.91
304.398
309.214
302.992
361.144
376.039
391.727
361.505
361.709
376.373
362.641
376.918
361.955
362.349
376.754
361.45
361.389
376.226
362.7
377.155
361.356
361.263
376.151
300
300
300.005
300.001
300
300
300.299
300.035
300.001
300
305.164
300.822
300.034
300.001
300
319.095
304.928
300.285
300.005
300
300
300
300.002
300
300
300
300.264
300.027
300.001
300
305.567
300.812
300.026
300
300
320.899
305.315
300.252
300.002
300
300
300
300
300
300
300
299.993
299.999
300
300
302.918
300.456
300.007
300
300
322.106
307.193
300.303
300.002
300
300
300
300
300
300
300
300.063
300.006
300
300
304.007
300.579
300.011
300
300
323.933
307.695
300.3
300.002
300
300
300
300
300
300
300
300.054
300.005
300
300
304.411
300.603
300.009
300
300
326.01
308.747
300.289
300.001
300
300
300
300
300
300
300
300.045
300.004
300
300
305.038
300.643
300.007
300
300
328.907
310.532
300.276
300.001
300
300
300
300
300
300
300
300.035
300.002
300
300
305.904
300.69
300.005
300
300
333.127
313.544
300.257
300.001
300
300
300
300
300
300
300
300.024
300.002
300
300
307.19
300.721
300.003
300
300
339.962
318.555
300.22
300
300
300
300
300
300
300
300
300.014
300.001
300
300
308.511
300.678
300.002
300
300
355.689
329.837
300.159
300
300
300
300
300
300
300
300
300.004
300
300
300
303.679
301.344
300.001
300
300
351.129
300.11
300
300
300
300
300
300
300
300
300
300
300
300
300
300
300
300
300
300
300
300
300
300
300
300
300
300
300
300
300
300
300
300
300
300
300
300
300
300
300
300
300
300
300
300
300
300
300
300
300
300
300
300
300
300
300
300
300
300
300
300
300
300
300
300
300
300
300
300
300
300
300
300
300
300
300
300
300
300
300
300
300
300
300
300
300
300
300
300
300
300
300
300
300
300
300
300
300
300
300
300
300
300
300
300
300
300
300
300
300
300
300
300
300
300
300
300
300
300
300
300
300
300
300
300
300
300
300
300
300
300
300
300
300
300
300
300
300
300
300
300
300
300
300
300
300
300
300
300
300
300
300
300
300
300
300
300
300
300
300
300
300
300
300
300
300
300
300
300
300
300
300
300
300
300
300
300
300
300
300
300
300
300
300
300
300
300
300
300
300
300
300
300
300
300
300
300
300
300
300
300
300
300
300
300
300
300
300
300
300
300
300
300
300
300
300
300
300
300
300
300
300
300
300
300
300
300
300
300
300
300
300
300
300
300
300
300
300
300
300
300
300
300
300
300
300
300
300
300
300
300
300
300
300
300
300
300
300
300
300
300
300
300
300
300
300
300
300
300
300
300
300
300
300
300
300
300
300
300
300
300
300
300
300
300
300
300
300
300
300
300
300
300
300
300
300
300
300
300
300
300
300
300
300
300
300
300
300
300
300
300
300
300
300
300
300
300
300
300
300
300
300
300
300
300
300
300
300
300
300
300
300
300
300
300
300
300
300
300
300
300
300
300
300
300
300
300
300
300
300
300
300
300
300
300
300
300
300
300
300
300
300
300
300
300
300
300
300
300
300
300
300
300
300
300
300
300
300
300
300
300
300
300
300
300
300
300
300
300
300
300
300
300
300
300
300
300
300
300
300
300
300
300
300
300
300
300
300
300
300
300
300
300
300
300
300
300
300
300
300
300
300
300
300
300
300
300
300
300
300
300
300
300
300
300
300
300
300
300
300
300
300
300
300
300.005
300.002
300
300
300.005
300.002
300
300.001
300
300
300
300
300
299.986
300.819
300.314
300.07
300.031
300.67
300.322
300
300.103
300.007
300.007
300.001
300.078
300.013
300
300.002
300
300
300
300.001
300
300.576
315.076
307.3
303.916
302.046
313.008
307.32
299.968
302.912
300.446
300.578
300.104
302.478
300.57
300
300.101
299.999
300.013
300.001
300.077
300.007
300
300.001
300
300
300
300
300
313.858
330.565
321.725
323.378
317.071
328.275
323.016
300.546
314.263
302.733
307.08
301.972
312.336
303.705
299.986
300.779
299.994
300.311
300.031
300.64
300.068
300
300.005
300
300.002
300
300.005
300
300
300.004
300.002
300
300
300.004
300.002
300
300
300
300
300
300
300
300.028
300.662
300.31
300.06
300.026
300.657
300.304
300.001
300.075
300.011
300.006
300.001
300.072
300.01
300
300.001
300
300
300
300.001
300
302.095
314.129
307.926
304.232
302.172
314.66
308.215
300.101
302.618
300.571
300.585
300.096
302.706
300.578
300.001
300.073
300.006
300.01
300.001
300.07
300.006
300
300
300
300
300
300
300
317.61
329.187
323.583
325.102
318.785
329.747
324.772
302.021
313.44
303.796
307.978
302.099
313.961
304.02
300.027
300.633
300.061
300.295
300.025
300.63
300.058
300
300.004
300
300.002
300
300.004
300
300
300.003
300.001
300
300
300.003
300.001
300
300
300
300
300
300
300
300.023
300.648
300.298
300.05
300.021
300.645
300.29
300.001
300.068
300.009
300.004
300.001
300.065
300.008
300
300.001
300
300
300
300.001
300
302.283
315.923
308.981
304.75
302.406
317.099
309.642
300.095
302.907
300.596
300.619
300.091
303.123
300.612
300.001
300.067
300.005
300.008
300.001
300.064
300.004
300
300
300
300
300
300
300
319.816
330.602
325.711
327.495
321.343
331.501
327.226
302.211
315.211
304.201
309.391
302.333
316.366
304.538
300.023
300.625
300.053
300.283
300.021
300.624
300.049
300
300.003
300
300.001
300
300.003
300
300
300.002
300.001
300
300
300.002
300.001
300
300
300
300
300
300
300
300.019
300.638
300.283
300.041
300.017
300.632
300.272
300
300.061
300.007
300.003
300
300.056
300.006
300
300.001
300
300
300
300.001
300
302.579
318.786
310.775
305.502
302.748
320.809
311.995
300.088
303.426
300.636
300.664
300.082
303.829
300.658
300
300.06
300.004
300.006
300
300.056
300.003
300
300
300
300
300
300
300
323.163
332.453
328.698
330.915
325.466
333.679
330.768
302.508
318.045
304.821
311.753
302.677
320.035
305.263
300.018
300.619
300.044
300.266
300.017
300.612
300.04
300
300.002
300
300.001
300
300.002
300
300
300.001
300.001
300
300
300.001
300
300
300
300
300
300
300
300
300.014
300.613
300.261
300.031
300.012
300.599
300.244
300
300.051
300.005
300.002
300
300.046
300.004
300
300
300
300
300
300
300
302.987
323.27
313.755
306.566
303.227
326.565
315.933
300.078
304.318
300.684
300.712
300.07
304.976
300.704
300
300.051
300.002
300.004
300
300.045
300.002
300
300
300
300
300
300
300
328.519
334.946
333.101
336.184
332.489
336.628
336.207
302.925
322.629
305.739
315.645
303.149
325.879
306.388
300.014
300.601
300.035
300.24
300.012
300.59
300.03
300
300.001
300
300
300
300.001
300
300
300.001
300
300
300
300.001
300
300
300
300
300
300
300
300
300.01
300.562
300.222
300.02
300.008
300.516
300.19
300
300.039
300.003
300.001
300
300.032
300.003
300
300
300
300
300
300
300
303.503
330.609
318.769
307.979
303.756
336.311
322.435
300.063
305.741
300.714
300.713
300.052
306.623
300.709
300
300.039
300.002
300.003
300
300.032
300.001
300
300
300
300
300
300
300
337.751
338.731
340.037
348.956
345.496
340.52
349.772
303.452
329.974
307.047
322.17
303.691
335.746
307.853
300.01
300.557
300.024
300.19
300.008
300.515
300.019
300
300.001
300
300
300
300.001
300
300
300
300
300
300
300
300
300
300
300
300
300
300
300
300.006
300.454
300.152
300.008
300.004
300.387
300.119
300
300.024
300.002
300.001
300
300.016
300.001
300
300
300
300
300
300
300
303.93
358.733
330.411
303.975
300.966
382.543
342.183
300.04
307.693
300.672
300.634
300.026
321.23
300.63
300
300.024
300.001
300.001
300
300.016
300.001
300
300
300
300
300
300
300
344.925
342.431
356.525
357.989
303.904
359.021
308.469
342.003
300.98
382.373
304
300.006
300.467
300.014
300.122
300.004
300.392
300.009
300
300
300
300
300
300
300
300
300
300
300
300
300
300.002
300.094
300.108
300