/*--------------------------------*- C++ -*----------------------------------*\
| =========                 |                                                 |
| \\      /  F ield         | OpenFOAM: The Open Source CFD Toolbox           |
|  \\    /   O peration     | Version:  2.2.2                                 |
|   \\  /    A nd           | Web:      www.OpenFOAM.org                      |
|    \\/     M anipulation  |                                                 |
\*---------------------------------------------------------------------------*/
FoamFile
{
    version     2.0;
    format      ascii;
    class       volVectorField;
    location    "0.922666";
    object      U;
}
// * * * * * * * * * * * * * * * * * * * * * * * * * * * * * * * * * * * * * //

dimensions      [0 1 -1 0 0 0 0];

internalField   nonuniform List<vector> 
25373
(
(-1.2302e-05 -0.000320116 -0.0549666)
(-0.000226756 -2.89094e-05 -0.0549827)
(3.96607e-05 7.41012e-05 -0.0547985)
(7.01071e-06 0.000116949 -0.0545057)
(-4.51202e-05 -0.000200408 -0.0549829)
(0.000233054 0.000257918 -0.0546985)
(0.000293652 0.000425598 -0.0536087)
(0.00013752 0.000501214 -0.0515204)
(6.1784e-05 6.73714e-05 -0.0548004)
(0.000417243 0.000340528 -0.053619)
(0.000800607 0.000826533 -0.0486206)
(0.000448814 0.00111142 -0.0411282)
(-0.00032617 -1.64351e-05 -0.0549669)
(0.000123837 2.63024e-05 -0.0545142)
(0.000524434 0.000174122 -0.0515951)
(0.00117076 0.000463111 -0.0413306)
(0.000570181 0.00050378 -0.029433)
(-4.43444e-05 1.57537e-05 -0.0552518)
(-3.59155e-05 0.000146744 -0.0552929)
(0.000131723 0.000292514 -0.055332)
(3.916e-05 0.000336474 -0.0550927)
(0.000131736 -1.24384e-05 -0.0552936)
(0.000361171 0.00038577 -0.0552635)
(0.000404322 0.00069009 -0.0542405)
(0.000209503 0.000971951 -0.0520425)
(0.000287564 0.000159048 -0.0553329)
(0.000684655 0.000454935 -0.0542482)
(0.00132431 0.00135157 -0.0486829)
(0.00071988 0.00179436 -0.039924)
(1.59819e-05 -2.94775e-05 -0.0552533)
(0.00034707 6.01155e-05 -0.0550991)
(0.000993981 0.000252854 -0.0521142)
(0.00186298 0.000735956 -0.040134)
(0.000798611 0.000722248 -0.026115)
(-6.31478e-05 0.000108386 -0.055475)
(7.28665e-06 0.000172676 -0.0554682)
(-1.18113e-06 0.00024141 -0.0555154)
(-0.000107315 0.000508216 -0.0554677)
(0.000158703 2.94301e-05 -0.055469)
(0.000186915 0.000209211 -0.0554558)
(8.92087e-05 0.000527574 -0.0552149)
(-0.00028886 0.000983296 -0.0543332)
(0.000236535 2.1144e-05 -0.0555155)
(0.000523275 0.000130702 -0.0552129)
(0.000571561 0.000604877 -0.0531857)
(-1.11804e-05 0.00144091 -0.045705)
(0.000111435 -4.95598e-05 -0.0554742)
(0.000510726 -8.7001e-05 -0.0554677)
(0.000996065 -0.000243198 -0.0543537)
(0.00149123 4.29532e-05 -0.0458634)
(0.000304558 0.000228853 -0.029317)
(-5.41755e-05 0.000101791 -0.0558434)
(1.61992e-05 0.000172994 -0.0558595)
(4.65887e-05 0.000266627 -0.0558578)
(-2.88388e-05 0.00046473 -0.0557877)
(0.000160203 3.8082e-05 -0.0558597)
(0.000253136 0.000275473 -0.0558101)
(0.000266153 0.000634151 -0.055517)
(5.82909e-05 0.000970529 -0.0545394)
(0.000263973 7.03892e-05 -0.0558576)
(0.000631436 0.000310301 -0.0555155)
(0.000979384 0.00101706 -0.0529901)
(0.000683548 0.00173006 -0.0449109)
(0.000103503 -4.37913e-05 -0.0558447)
(0.00047057 -1.01305e-05 -0.0557883)
(0.000989175 0.000102665 -0.0545645)
(0.00177524 0.000735819 -0.0450735)
(0.000955095 0.000894674 -0.0269151)
(-5.27582e-05 9.7633e-05 -0.0562377)
(1.4605e-05 0.000154225 -0.0562485)
(8.35706e-05 0.000295236 -0.0562359)
(2.18135e-05 0.000510185 -0.0561768)
(0.000142073 3.58806e-05 -0.0562489)
(0.000309947 0.000332032 -0.0561888)
(0.000359602 0.000755916 -0.055941)
(0.000141888 0.00113487 -0.0550461)
(0.000293712 0.000107244 -0.0562367)
(0.000756317 0.000405084 -0.0559406)
(0.00123183 0.00127418 -0.0534927)
(0.000959773 0.00211499 -0.0445433)
(9.98323e-05 -3.91848e-05 -0.0562419)
(0.000520712 4.12488e-05 -0.0561771)
(0.00115887 0.000186438 -0.0550643)
(0.00216091 0.00102006 -0.0447075)
(0.00145849 0.00140167 -0.024086)
(-5.36025e-05 9.6066e-05 -0.0566798)
(1.508e-05 0.000142044 -0.0566723)
(0.000105692 0.000320084 -0.0566635)
(5.21121e-05 0.00056153 -0.0566279)
(0.000130857 3.66289e-05 -0.0566725)
(0.000353151 0.000374952 -0.0566323)
(0.0004321 0.000865586 -0.0564543)
(0.00018235 0.00132443 -0.0556911)
(0.00032135 0.000130107 -0.0566657)
(0.000869436 0.000480491 -0.0564535)
(0.00149615 0.00154522 -0.054149)
(0.00123173 0.00265743 -0.0443069)
(9.94554e-05 -3.84578e-05 -0.0566853)
(0.000574916 7.24592e-05 -0.05663)
(0.00136013 0.000231337 -0.0556969)
(0.00274965 0.00130545 -0.0444758)
(0.00190428 0.00184197 -0.0206007)
(-5.12944e-05 9.01887e-05 -0.0571482)
(1.1214e-05 0.000125349 -0.057118)
(9.99031e-05 0.000311061 -0.0571295)
(5.84086e-05 0.000559869 -0.0571382)
(0.000114455 3.07343e-05 -0.0571187)
(0.000343816 0.000365043 -0.0571235)
(0.000439345 0.000887065 -0.0570715)
(0.000173468 0.0014141 -0.0565277)
(0.000313849 0.00012452 -0.0571339)
(0.000894639 0.00049124 -0.0570709)
(0.00168139 0.00173166 -0.0551142)
(0.00146706 0.00311388 -0.0442485)
(9.12105e-05 -3.53787e-05 -0.0571531)
(0.000570855 7.87635e-05 -0.0571416)
(0.00144301 0.000226783 -0.0565349)
(0.00318705 0.00153491 -0.044395)
(0.00226152 0.00220147 -0.0163855)
(-4.90892e-05 6.50424e-05 -0.0575506)
(-8.4744e-06 8.49622e-05 -0.0574908)
(4.12528e-05 0.000213996 -0.0575492)
(2.69666e-05 0.000414471 -0.0576356)
(7.48401e-05 1.12367e-05 -0.0574936)
(0.000230074 0.000250348 -0.0575926)
(0.000304687 0.000682593 -0.0577553)
(6.93285e-05 0.00121556 -0.0575741)
(0.000214523 6.48224e-05 -0.0575554)
(0.000693448 0.000355338 -0.0577581)
(0.00156964 0.0016216 -0.0565268)
(0.00168025 0.00343389 -0.044656)
(6.46566e-05 -3.67161e-05 -0.0575603)
(0.000422589 4.58507e-05 -0.0576418)
(0.00124545 0.000118108 -0.0575844)
(0.00352385 0.00175167 -0.0447002)
(0.00237942 0.00239398 -0.0113752)
(-4.7365e-05 4.01221e-05 -0.057734)
(-3.27781e-05 2.08518e-05 -0.0576451)
(-5.30821e-05 4.04584e-05 -0.0577478)
(-2.69106e-05 0.00016096 -0.0579127)
(9.53956e-06 -1.3608e-05 -0.0576492)
(1.27495e-05 3.18503e-05 -0.0578373)
(-1.70268e-05 0.000186997 -0.058301)
(-0.000175382 0.000495573 -0.0586368)
(3.95657e-05 -2.95236e-05 -0.057757)
(0.000195134 2.95621e-05 -0.0583079)
(0.000738961 0.000788891 -0.058383)
(0.0016594 0.00258823 -0.0461769)
(3.95857e-05 -3.65164e-05 -0.0577472)
(0.000164782 -8.91599e-06 -0.0579282)
(0.000499181 -0.000144352 -0.0586541)
(0.00272785 0.00164521 -0.0461536)
(0.000581724 0.000718281 -0.0112124)
(-2.10912e-05 -9.81448e-05 -0.0575122)
(-9.78209e-05 -0.000133797 -0.0574029)
(-0.000274579 -0.000441912 -0.0575356)
(-0.000104464 -0.000653662 -0.0577975)
(-0.000144549 -8.24593e-05 -0.0574079)
(-0.000519454 -0.000498759 -0.0576589)
(-0.000747519 -0.000931981 -0.0582653)
(-0.00073357 -0.00121257 -0.0589519)
(-0.000444398 -0.000256262 -0.0575473)
(-0.000942531 -0.000703632 -0.0582829)
(-0.000946073 -0.000877753 -0.0601016)
(0.000350564 1.93022e-05 -0.0512243)
(-9.464e-05 -1.77834e-05 -0.0575273)
(-0.000628932 -9.32996e-05 -0.0578157)
(-0.00108577 -0.000696577 -0.0589903)
(-0.000861394 0.000181198 -0.0555501)
(0.00225837 0.00252079 -0.00690637)
(-0.000225034 -0.000200345 -0.0549055)
(-0.000135954 0.000115949 -0.0554416)
(2.53094e-05 -0.000347192 -0.0549179)
(-0.000177074 -0.000288563 -0.0549625)
(-0.00011874 -0.000301108 -0.0549785)
(-6.97123e-05 1.12248e-05 -0.0555112)
(-6.76266e-05 8.61379e-05 -0.0553988)
(-3.36207e-05 0.000157529 -0.0553436)
(3.11018e-05 -0.000329072 -0.0549647)
(-6.33856e-05 -0.000311609 -0.0549609)
(-1.68662e-05 -0.000291318 -0.0549563)
(-5.68386e-05 6.74139e-06 -0.0555189)
(4.09591e-06 2.78389e-06 -0.0555283)
(-3.61466e-05 0.000102229 -0.0552766)
(-1.03037e-06 0.000133637 -0.055253)
(-0.000239791 -0.000170772 -0.0549258)
(-0.000188099 -0.0002166 -0.054926)
(-0.000166918 -0.000146333 -0.0549812)
(-3.94416e-05 5.89591e-05 -0.055461)
(4.08112e-05 -1.77262e-05 -0.0554606)
(8.38118e-05 0.000104312 -0.0553565)
(-0.000233654 -0.00014973 -0.0549577)
(8.88085e-06 -0.00012692 -0.0549392)
(3.21724e-05 6.70507e-05 -0.0549081)
(-4.44123e-05 0.000151275 -0.0554439)
(8.89491e-06 0.000103685 -0.0553308)
(0.000112286 0.000124462 -0.0552758)
(0.000263461 0.000316589 -0.05518)
(-0.000215983 -0.000170308 -0.0549055)
(0.000103562 -0.000113494 -0.0554409)
(-0.000145692 3.10065e-05 -0.0549386)
(-0.000164009 -0.000208767 -0.0549583)
(5.00453e-05 6.03787e-05 -0.0549094)
(0.000136055 -2.2041e-05 -0.0554446)
(0.000105887 0.000134331 -0.0552763)
(8.97139e-05 3.1964e-05 -0.0553337)
(0.000301433 0.000291141 -0.05518)
(-0.000316046 -0.000151493 -0.0549625)
(-0.000377209 1.59757e-05 -0.0549108)
(-0.000318905 -0.000109186 -0.0549791)
(7.81214e-05 -4.92222e-05 -0.0554113)
(1.00592e-05 -4.4098e-05 -0.0555308)
(0.000158442 -1.24962e-05 -0.0553474)
(-0.000317461 -4.83511e-05 -0.0549618)
(-0.000332357 3.7876e-05 -0.054967)
(-0.000291215 -9.97717e-06 -0.0549587)
(6.93788e-06 -3.84386e-05 -0.0555284)
(0.000105147 -1.78034e-05 -0.055281)
(4.05542e-06 1.87001e-05 -0.0555344)
(0.000139804 9.76697e-06 -0.0552552)
(-0.000112575 6.67735e-05 -0.0552128)
(-0.000129935 0.000105835 -0.0554818)
(-5.68114e-05 8.18807e-06 -0.055246)
(-4.30325e-05 -8.54239e-05 -0.0552354)
(-3.76063e-05 6.52731e-06 -0.0552256)
(-6.84711e-05 1.84178e-05 -0.0554866)
(-4.43379e-05 -1.43339e-05 -0.0554806)
(-1.83103e-05 0.000127631 -0.055455)
(1.25756e-05 5.98399e-06 -0.0552502)
(-2.42992e-05 -6.3925e-05 -0.0551971)
(8.79091e-07 -1.52657e-05 -0.055186)
(-5.22538e-05 3.62519e-05 -0.0554888)
(1.08099e-05 2.93566e-05 -0.0554888)
(-1.95206e-05 6.86239e-05 -0.0554271)
(9.78033e-06 0.000146228 -0.055412)
(-0.000104868 8.41677e-05 -0.0552646)
(6.62962e-05 -8.36721e-05 -0.0552649)
(3.95206e-05 6.00862e-05 -0.055248)
(-8.50627e-05 8.5089e-05 -0.0555116)
(6.68057e-05 -6.39294e-05 -0.0555121)
(8.44746e-05 0.000105371 -0.0554852)
(-9.36146e-05 7.39942e-05 -0.0552517)
(0.000134291 -1.19347e-06 -0.0552451)
(0.00016065 0.000216535 -0.0551605)
(-1.95919e-05 0.000178993 -0.05551)
(-3.33763e-05 0.000118279 -0.0555079)
(0.000159357 2.10042e-06 -0.0555014)
(0.000290985 0.000329433 -0.0553776)
(5.31846e-05 -8.63824e-05 -0.0552133)
(9.46915e-05 -0.000110742 -0.0554832)
(-1.95304e-05 0.00015682 -0.0552449)
(5.90772e-05 -7.15878e-05 -0.0552536)
(0.000200913 0.000187519 -0.0551605)
(0.000164727 2.22711e-06 -0.0555101)
(-1.62604e-05 0.000181687 -0.0555012)
(0.000104872 -1.12638e-05 -0.05551)
(0.000315312 0.000320345 -0.0553756)
(-9.71833e-05 -2.4e-05 -0.0552354)
(3.96477e-06 -3.46087e-05 -0.0552459)
(1.36379e-06 -1.90721e-05 -0.0552244)
(-2.2336e-05 -2.82146e-05 -0.0554829)
(1.67163e-05 -4.4506e-05 -0.0554869)
(0.000126588 -4.79888e-07 -0.0554551)
(-6.33207e-05 -7.38787e-06 -0.0551971)
(5.80288e-06 2.55341e-05 -0.0552525)
(-1.21383e-05 9.70637e-06 -0.0551864)
(3.76493e-05 -3.80596e-05 -0.0554928)
(7.12371e-05 -3.65271e-06 -0.055428)
(3.15627e-05 2.52396e-05 -0.0554904)
(0.000151933 1.93133e-05 -0.0554131)
(-0.000111924 -1.69832e-06 -0.0555312)
(-3.22565e-05 6.22222e-05 -0.0557705)
(-0.000160102 8.96781e-05 -0.0555029)
(3.45966e-05 -0.000185375 -0.0554869)
(4.9949e-05 -1.19408e-06 -0.0554995)
(-3.86335e-05 4.17391e-05 -0.0557536)
(-4.36851e-05 0.000139487 -0.0557467)
(-1.28786e-05 0.000137609 -0.0557617)
(2.05291e-05 0.000166445 -0.0554933)
(3.62923e-05 -8.40988e-05 -0.0554698)
(4.85667e-05 -3.17022e-06 -0.0554739)
(-4.74914e-05 5.50744e-05 -0.0557412)
(-1.35033e-05 4.56535e-05 -0.0557524)
(-8.45377e-06 0.000199502 -0.0557401)
(1.12361e-06 0.000204317 -0.0557427)
(-0.000208462 0.000208002 -0.0555149)
(0.000189324 -0.000185743 -0.0555156)
(6.29426e-06 2.78138e-05 -0.055523)
(5.13837e-05 -2.35308e-08 -0.0557478)
(-1.69838e-05 7.21017e-05 -0.0557487)
(8.66879e-05 0.000107376 -0.0557583)
(-2.72918e-05 0.000296823 -0.0555323)
(0.000351927 -0.000115292 -0.0555285)
(0.000179596 0.000199612 -0.0554899)
(-1.28693e-05 9.01566e-05 -0.0557318)
(6.2884e-05 0.000112774 -0.0557515)
(9.48632e-05 0.000308128 -0.0557185)
(0.000184137 0.000283578 -0.0557536)
(-1.43638e-05 -9.22493e-05 -0.0555336)
(5.17071e-05 -1.06573e-05 -0.0557727)
(-0.000134452 0.00037705 -0.0555286)
(0.000284999 -4.5381e-06 -0.0555337)
(0.000184497 0.000209243 -0.0554895)
(7.78086e-05 8.29984e-06 -0.0557323)
(0.000290677 0.000118063 -0.0557185)
(0.000103855 8.45325e-05 -0.0557528)
(0.000268804 0.000213505 -0.0557537)
(-0.000191489 5.0868e-05 -0.0554875)
(8.80608e-05 -0.000146273 -0.0554992)
(-2.93445e-06 6.80866e-05 -0.0554982)
(0.000129268 -2.28916e-05 -0.0557474)
(3.55219e-05 -2.02507e-05 -0.0557517)
(0.000132284 5.81688e-06 -0.0557615)
(-8.16397e-05 5.03444e-05 -0.0554691)
(0.000167182 1.6428e-05 -0.0554917)
(1.13792e-06 6.71321e-05 -0.0554739)
(5.37562e-05 -3.42097e-05 -0.0557407)
(0.000196583 8.12586e-06 -0.0557403)
(4.86694e-05 2.40014e-06 -0.0557522)
(0.000205664 1.12523e-05 -0.0557424)
(-9.22186e-05 2.33917e-05 -0.0558517)
(1.31226e-05 4.32306e-05 -0.0560963)
(-9.87405e-05 7.13114e-05 -0.0558401)
(1.4514e-05 -0.000107457 -0.0558465)
(3.75801e-05 6.02416e-05 -0.0558429)
(-2.40336e-05 3.42152e-05 -0.0560764)
(-1.93972e-05 0.000134065 -0.0560653)
(9.42361e-06 0.00014605 -0.0560904)
(1.20075e-05 0.000125478 -0.0558436)
(2.72885e-05 2.68566e-05 -0.0558234)
(3.57047e-05 9.77765e-05 -0.0558157)
(-4.30261e-05 6.27059e-05 -0.0560671)
(-1.43111e-05 5.60715e-05 -0.056081)
(1.3213e-05 0.000225283 -0.0560675)
(-6.18104e-07 0.000232981 -0.0560749)
(-0.000173082 0.000173749 -0.0558521)
(0.000155725 -0.000149186 -0.0558532)
(3.30895e-05 5.45892e-05 -0.055848)
(4.59626e-05 -8.56492e-07 -0.0560624)
(-1.65042e-05 6.81234e-05 -0.0560621)
(8.67465e-05 0.000106912 -0.0560848)
(-4.67639e-07 0.00024576 -0.0558501)
(0.000319155 -6.03828e-05 -0.055849)
(0.000225833 0.000276658 -0.0558145)
(5.90879e-06 8.17544e-05 -0.0560152)
(6.84896e-05 0.000129815 -0.0560668)
(0.00012042 0.000266086 -0.0560348)
(0.000208066 0.000327625 -0.0560711)
(1.31997e-05 -6.66581e-05 -0.0558519)
(3.08646e-05 3.69357e-05 -0.0560963)
(-7.96152e-05 0.00034331 -0.0558482)
(0.000236166 2.45087e-05 -0.0558505)
(0.000261893 0.000256059 -0.0558139)
(6.93557e-05 2.82653e-05 -0.056016)
(0.000248283 0.000145039 -0.0560349)
(0.000119465 9.18324e-05 -0.0560673)
(0.000311468 0.000239013 -0.0560707)
(-0.000112231 3.49133e-05 -0.0558457)
(6.40675e-05 -8.62327e-05 -0.0558395)
(5.52923e-05 5.5453e-05 -0.0558418)
(0.000124291 1.70108e-06 -0.056066)
(2.82344e-05 -9.02383e-06 -0.0560812)
(0.000140463 2.84333e-05 -0.0560927)
(3.02689e-05 4.27864e-05 -0.0558225)
(0.000127452 1.96586e-05 -0.0558434)
(0.000101883 4.76005e-05 -0.0558148)
(6.18182e-05 -2.81512e-05 -0.0560701)
(0.000226896 3.08633e-05 -0.056069)
(5.83657e-05 -1.41333e-06 -0.0560838)
(0.000238341 9.73639e-06 -0.0560758)
(-4.60598e-05 3.29063e-05 -0.0562142)
(1.88687e-05 3.58066e-05 -0.0564804)
(-6.80692e-05 5.54888e-05 -0.056224)
(8.87394e-06 -1.2458e-05 -0.0562251)
(4.33889e-05 0.000104371 -0.0562186)
(-2.51357e-05 3.58832e-05 -0.0564753)
(-8.33175e-06 0.000119612 -0.05646)
(2.96458e-05 0.000163642 -0.0564804)
(6.28052e-06 0.000110616 -0.056236)
(3.31414e-05 0.000133768 -0.0562111)
(2.85328e-05 0.000179432 -0.0562027)
(-4.46117e-05 7.33207e-05 -0.0564729)
(-1.09953e-05 7.06776e-05 -0.0564859)
(2.90351e-05 0.000246322 -0.0564652)
(5.10659e-06 0.000260163 -0.0564709)
(-9.37133e-05 0.00012112 -0.0562366)
(0.000102857 -7.16279e-05 -0.0562361)
(6.59912e-05 8.84705e-05 -0.0562223)
(3.71397e-05 1.64472e-05 -0.0564556)
(-1.51998e-06 5.85648e-05 -0.0564569)
(9.31923e-05 0.000116093 -0.0564687)
(4.98558e-05 0.000214888 -0.0562217)
(0.000271147 9.86749e-05 -0.0562201)
(0.000258767 0.000335281 -0.0561796)
(2.19261e-05 9.74979e-05 -0.0564241)
(8.37942e-05 0.000165961 -0.0564573)
(0.00016521 0.000249837 -0.0564345)
(0.000245158 0.000373416 -0.0564558)
(2.00237e-05 -2.19566e-05 -0.0562145)
(2.32847e-05 4.22729e-05 -0.056483)
(7.99002e-05 0.000295917 -0.05622)
(0.000204322 7.36858e-05 -0.0562224)
(0.000319041 0.000290591 -0.0561793)
(8.52583e-05 4.37055e-05 -0.0564249)
(0.000231632 0.000191867 -0.0564345)
(0.000155173 0.000108128 -0.0564585)
(0.000356825 0.000278652 -0.0564557)
(-1.87379e-05 2.80064e-05 -0.0562268)
(5.24434e-05 -5.30975e-05 -0.0562281)
(0.000101585 6.10339e-05 -0.0562209)
(0.000111106 1.18549e-05 -0.056464)
(3.25299e-05 -9.83532e-06 -0.056481)
(0.000160069 4.88513e-05 -0.0564847)
(0.000135904 4.97309e-05 -0.0562131)
(0.000112973 1.54127e-05 -0.0562373)
(0.000183636 3.8792e-05 -0.056204)
(7.42303e-05 -2.57068e-05 -0.0564786)
(0.000248382 4.78e-05 -0.0564691)
(7.18826e-05 -4.04732e-07 -0.0564901)
(0.000263828 1.55369e-05 -0.0564742)
(-1.57889e-05 3.24399e-05 -0.0566419)
(1.74416e-05 3.16475e-05 -0.0569207)
(-4.83667e-05 4.97954e-05 -0.0566635)
(6.36384e-06 4.33833e-05 -0.0566537)
(5.10007e-05 0.000145704 -0.0566525)
(-3.12871e-05 3.97943e-05 -0.05693)
(-2.58274e-06 0.000101807 -0.0569112)
(4.63637e-05 0.000179641 -0.056928)
(3.15402e-06 0.000105326 -0.0566812)
(3.98599e-05 0.000200302 -0.0566509)
(2.41497e-05 0.000234569 -0.0566452)
(-4.88725e-05 8.30745e-05 -0.0569358)
(-7.99745e-06 8.17625e-05 -0.0569419)
(3.95596e-05 0.000251989 -0.0569243)
(1.01013e-05 0.000267126 -0.0569296)
(-3.99573e-05 8.29392e-05 -0.0566624)
(6.65106e-05 -1.68365e-05 -0.0566619)
(9.20325e-05 0.000114013 -0.0566553)
(2.41067e-05 3.13177e-05 -0.0569029)
(1.13025e-05 4.42557e-05 -0.0569022)
(0.000100927 0.000125338 -0.0569109)
(7.83816e-05 0.000210537 -0.0566498)
(0.000248861 0.000183344 -0.0566503)
(0.000284796 0.000373765 -0.0566175)
(2.13582e-05 0.000108853 -0.0568876)
(9.4126e-05 0.000190103 -0.0569053)
(0.000189601 0.000240098 -0.0568953)
(0.000272479 0.000389028 -0.0569134)
(2.08485e-05 8.05536e-06 -0.0566466)
(2.24106e-05 4.22962e-05 -0.0569246)
(0.000165395 0.000274479 -0.0566507)
(0.00020111 0.000102086 -0.056651)
(0.000357894 0.000317883 -0.0566176)
(9.6762e-05 4.10824e-05 -0.0568881)
(0.000221721 0.000216533 -0.0568962)
(0.000181714 0.000118303 -0.0569063)
(0.000373059 0.000307087 -0.0569131)
(3.72072e-05 2.564e-05 -0.0566587)
(4.75081e-05 -3.46053e-05 -0.0566696)
(0.000143836 6.9289e-05 -0.0566578)
(9.46812e-05 1.88039e-05 -0.0569176)
(3.71579e-05 -1.46876e-05 -0.0569385)
(0.000176527 6.58126e-05 -0.0569348)
(0.000203248 5.73642e-05 -0.0566556)
(0.00010922 1.31419e-05 -0.0566864)
(0.000239855 3.45329e-05 -0.0566495)
(8.40088e-05 -2.9981e-05 -0.0569414)
(0.000253787 5.84258e-05 -0.0569306)
(8.45999e-05 4.73364e-06 -0.0569473)
(0.000272865 2.12065e-05 -0.0569344)
(-1.77363e-06 2.71358e-05 -0.0571031)
(1.27542e-05 2.28752e-05 -0.0573602)
(-4.55033e-05 4.43576e-05 -0.0571341)
(4.64738e-06 5.81031e-05 -0.0571101)
(5.50053e-05 0.000164743 -0.0571186)
(-3.9914e-05 3.86923e-05 -0.0573859)
(-6.79561e-07 6.67612e-05 -0.0573554)
(5.07328e-05 0.000168722 -0.057376)
(-7.29084e-07 9.44614e-05 -0.0571533)
(4.115e-05 0.000214916 -0.0571243)
(1.98204e-05 0.000236727 -0.0571265)
(-5.02119e-05 8.0386e-05 -0.0573897)
(-7.46377e-06 8.18325e-05 -0.0574017)
(3.86166e-05 0.000204076 -0.0573881)
(1.05235e-05 0.000215326 -0.0573995)
(-1.52024e-05 6.28439e-05 -0.0571082)
(4.53914e-05 5.04923e-06 -0.0571098)
(9.86438e-05 0.00012105 -0.0571066)
(5.55399e-06 3.49627e-05 -0.0573333)
(1.82118e-05 2.78726e-05 -0.0573339)
(9.29344e-05 0.000114239 -0.0573414)
(8.80243e-05 0.000202559 -0.0571054)
(0.000217839 0.000199455 -0.0571123)
(0.000281214 0.000360948 -0.0571073)
(6.76328e-06 9.88882e-05 -0.0573325)
(8.55113e-05 0.00018369 -0.0573468)
(0.000166233 0.000192144 -0.0573523)
(0.000252672 0.000329451 -0.0573948)
(1.70341e-05 2.03241e-05 -0.0571063)
(1.31125e-05 3.27859e-05 -0.0573639)
(0.000181775 0.000242312 -0.0571132)
(0.000194275 0.000110357 -0.0571071)
(0.000344698 0.000313385 -0.057107)
(8.69884e-05 2.7733e-05 -0.057334)
(0.000174846 0.00019154 -0.0573541)
(0.000175861 0.000107804 -0.057349)
(0.000314083 0.000284263 -0.0573951)
(5.23566e-05 2.25205e-05 -0.0571178)
(4.52688e-05 -2.79143e-05 -0.0571403)
(0.000164461 7.22188e-05 -0.057125)
(6.05653e-05 1.88414e-05 -0.0573639)
(3.50736e-05 -2.3611e-05 -0.0573896)
(0.000164644 6.82884e-05 -0.0573826)
(0.000214703 5.79089e-05 -0.0571307)
(9.96088e-05 8.18143e-06 -0.0571595)
(0.000243537 3.01449e-05 -0.0571319)
(7.99413e-05 -3.44049e-05 -0.0573965)
(0.000204374 5.48789e-05 -0.0573953)
(8.53129e-05 3.36152e-06 -0.0574061)
(0.000222777 2.13485e-05 -0.0574054)
(-3.59794e-06 1.39111e-05 -0.0575008)
(-3.95154e-06 6.70842e-06 -0.0576582)
(-4.7408e-05 3.38068e-05 -0.0575417)
(-9.91338e-07 2.72552e-05 -0.0575051)
(4.27173e-05 0.000133956 -0.0575264)
(-5.17654e-05 2.40274e-05 -0.0576994)
(-6.33081e-06 6.53094e-06 -0.057658)
(3.06679e-05 0.000103753 -0.0576857)
(-6.18528e-06 7.11598e-05 -0.0575621)
(2.60343e-05 0.000132002 -0.0575509)
(1.21812e-05 0.000143371 -0.0575647)
(-5.01058e-05 5.1991e-05 -0.0577001)
(-9.70537e-06 5.45469e-05 -0.0577162)
(1.51324e-05 6.31754e-05 -0.0577258)
(4.75103e-06 6.56159e-05 -0.0577435)
(-1.89144e-05 4.49994e-05 -0.0574776)
(2.87505e-05 1.15746e-06 -0.0574777)
(7.38928e-05 9.44987e-05 -0.0574855)
(-1.89244e-05 3.2607e-05 -0.0576196)
(1.68034e-05 3.15176e-07 -0.05762)
(5.363e-05 7.28199e-05 -0.0576327)
(6.35605e-05 0.000155356 -0.0574982)
(0.000135345 0.000132482 -0.0575201)
(0.000201158 0.000233945 -0.0575737)
(-1.96796e-05 5.98206e-05 -0.057631)
(3.95314e-05 0.000120788 -0.0576493)
(7.95391e-05 7.86136e-05 -0.0576766)
(0.000142817 0.000149062 -0.0577682)
(3.8779e-06 1.32215e-05 -0.0575065)
(-2.77023e-06 1.2931e-05 -0.0576648)
(0.000117663 0.000159857 -0.0575231)
(0.000147428 8.43163e-05 -0.0575014)
(0.000221484 0.000232761 -0.0575759)
(4.85409e-05 -1.75743e-07 -0.0576343)
(6.36888e-05 0.000102928 -0.0576802)
(0.000112776 5.94734e-05 -0.0576531)
(0.000136805 0.000171982 -0.057771)
(2.14087e-05 1.5397e-05 -0.0575133)
(3.03668e-05 -3.71754e-05 -0.0575492)
(0.000130259 5.69962e-05 -0.0575347)
(-1.21442e-07 1.04457e-05 -0.057667)
(2.06679e-05 -4.02647e-05 -0.0577077)
(0.000100248 4.48215e-05 -0.0576946)
(0.000131304 4.01092e-05 -0.0575602)
(7.25606e-05 4.18291e-06 -0.0575685)
(0.000149278 2.25209e-05 -0.0575727)
(5.10132e-05 -3.46271e-05 -0.0577102)
(6.10363e-05 2.89217e-05 -0.0577366)
(5.57954e-05 1.63584e-06 -0.0577251)
(7.32143e-05 1.48428e-05 -0.057753)
(4.68628e-09 -1.57943e-05 -0.0576799)
(-3.27352e-05 -2.31662e-05 -0.05769)
(-4.15043e-05 1.23366e-05 -0.0577312)
(-1.61579e-06 -5.06778e-05 -0.0576857)
(2.48692e-05 3.29971e-05 -0.0577194)
(-8.26974e-05 2.84996e-06 -0.0577401)
(-2.64469e-05 -9.4463e-05 -0.0576977)
(-4.23777e-05 -4.6953e-05 -0.0577347)
(-1.81503e-05 3.99734e-05 -0.0577488)
(6.14499e-06 -4.19697e-05 -0.0577858)
(-6.30541e-06 -7.92005e-05 -0.0578013)
(-4.31168e-05 -1.80982e-05 -0.0577363)
(-1.27455e-05 4.45655e-07 -0.0577531)
(-2.93086e-05 -0.000183433 -0.0578012)
(8.34488e-06 -0.000205708 -0.0578293)
(-2.46193e-05 1.29354e-05 -0.0576317)
(-2.77934e-06 -5.85208e-06 -0.0576326)
(2.16457e-05 3.97039e-05 -0.0576438)
(-4.90966e-05 1.17313e-05 -0.0576353)
(-1.7136e-06 -3.39331e-05 -0.0576362)
(-1.99336e-05 -5.15168e-06 -0.0576467)
(7.6833e-06 5.06481e-05 -0.0576702)
(-2.04862e-05 -1.35944e-05 -0.0577022)
(2.55508e-05 -2.10525e-05 -0.0578202)
(-5.92606e-05 -1.67805e-05 -0.0576478)
(-5.73101e-05 -2.06791e-05 -0.0576784)
(-0.00010103 -0.000116797 -0.0577161)
(-7.89583e-05 -0.000172189 -0.0578532)
(-2.37571e-05 1.56095e-05 -0.0576878)
(-2.86032e-05 -2.28055e-05 -0.0576981)
(-2.6214e-05 1.40589e-06 -0.0577066)
(4.35019e-05 2.59186e-05 -0.0576749)
(-3.11531e-05 5.22515e-05 -0.0578243)
(-2.77712e-05 -4.21627e-05 -0.0576521)
(-0.000128003 -8.1183e-05 -0.0577205)
(-2.64609e-05 -4.1939e-05 -0.0576833)
(-0.000179489 -5.61728e-05 -0.0578575)
(-5.52967e-05 1.36814e-05 -0.0576969)
(9.04714e-06 -2.96894e-05 -0.0577419)
(3.1106e-05 3.74472e-05 -0.0577306)
(-9.92555e-05 -1.2729e-05 -0.0577089)
(3.94788e-07 -7.94156e-05 -0.0577516)
(-4.80385e-05 -3.34895e-05 -0.0577468)
(-4.13352e-05 1.73038e-05 -0.0577993)
(4.05956e-05 -6.8751e-06 -0.0577584)
(-7.38308e-05 4.00602e-06 -0.057811)
(-2.11173e-05 -3.08219e-05 -0.0577495)
(-0.000188361 -1.78856e-05 -0.0578124)
(2.60142e-06 -3.12012e-06 -0.0577631)
(-0.000200881 1.98804e-05 -0.05784)
(-5.06238e-05 -5.25668e-05 -0.0574483)
(-2.51601e-05 -4.85054e-05 -0.0575151)
(-4.7625e-05 -0.000167951 -0.0574559)
(-6.79489e-05 -0.000178083 -0.0575018)
(-2.92696e-05 -0.000119645 -0.0575474)
(-9.26452e-05 -0.000341765 -0.0575447)
(-5.07686e-05 -0.000428097 -0.0576186)
(-6.60391e-05 -2.49328e-05 -0.0573908)
(-3.68592e-05 -5.28905e-05 -0.0573918)
(-0.000125441 -0.000113688 -0.0574048)
(-0.000145459 -0.000210823 -0.0574406)
(-0.000329844 -0.00034936 -0.0574908)
(-0.000377761 -0.000576178 -0.0576515)
(-5.72105e-05 -4.20277e-05 -0.0574571)
(-0.000358099 -0.000313656 -0.0574962)
(-0.000216348 -0.000133049 -0.057446)
(-0.000577158 -0.000355728 -0.0576558)
(-0.00017254 -3.78268e-05 -0.0574694)
(-5.03102e-05 -1.55959e-05 -0.0575275)
(-0.000175161 -5.43478e-05 -0.0575151)
(-0.000344686 -8.27621e-05 -0.0575602)
(-0.000120044 -2.10252e-05 -0.0575643)
(-0.000423324 -4.50995e-05 -0.0576391)
(2.40406e-06 0.000611022 -0.0555057)
(0.000327244 -8.48808e-05 -0.0554238)
(0.000242779 0.000408043 -0.0554007)
(0.000101408 0.000248173 -0.0555999)
(8.30871e-05 0.000327872 -0.0556649)
(0.000208816 0.000518813 -0.0556516)
(0.000169035 0.00051783 -0.0556491)
(9.76105e-05 0.00068225 -0.055445)
(6.89471e-05 2.00516e-05 -0.0551103)
(0.000188832 0.000267121 -0.0550117)
(6.89107e-05 0.000361084 -0.0554936)
(-9.17904e-06 0.000365245 -0.0555064)
(3.97653e-05 0.000653612 -0.0554147)
(7.78248e-05 0.000620752 -0.0553272)
(-0.000116281 0.000797034 -0.0554154)
(0.000780325 -8.29071e-05 -0.0554164)
(0.000557687 0.000595112 -0.0553004)
(0.000264437 0.000287328 -0.0554732)
(0.000486525 0.000320299 -0.0555677)
(0.000299456 0.000513902 -0.0555685)
(0.000534853 0.000571099 -0.0555166)
(1.06437e-05 0.00126789 -0.0548463)
(0.000958162 3.00301e-05 -0.0544098)
(0.000952898 0.00118366 -0.053136)
(0.000282024 0.000587902 -0.0550007)
(0.000266571 0.00079515 -0.0548329)
(0.000357687 0.0011506 -0.0546722)
(0.000528947 0.00106183 -0.053693)
(0.000291766 0.00134713 -0.0537467)
(0.000403397 0.000529666 -0.0509795)
(0.000603365 0.00102111 -0.0495498)
(9.92165e-05 0.000794991 -0.0538533)
(9.01013e-05 0.000817582 -0.0534923)
(0.000235676 0.001162 -0.0515464)
(0.000194422 0.00120692 -0.0503923)
(-9.2843e-05 0.000359674 -0.0554219)
(0.000612448 2.41162e-05 -0.0555057)
(0.000408659 0.000273176 -0.0554006)
(0.000244963 0.00012628 -0.0555998)
(0.000505153 0.000242885 -0.0556507)
(0.00032654 0.00010578 -0.0556664)
(0.000518433 0.000200756 -0.0556485)
(1.08482e-05 0.001004 -0.054411)
(0.00127254 6.05275e-05 -0.0548534)
(0.00117126 0.0010173 -0.0531624)
(0.000581299 0.000325891 -0.0549996)
(0.00111529 0.00042524 -0.0546758)
(0.000799136 0.000315112 -0.0548412)
(0.00106407 0.000599257 -0.0537166)
(0.000697453 0.00192228 -0.0493348)
(0.00192485 0.000760793 -0.0494002)
(0.002114 0.00212995 -0.042533)
(0.000921776 0.000964709 -0.0519986)
(0.00108018 0.00117668 -0.0492548)
(0.00117466 0.00113472 -0.0492951)
(0.00137563 0.00139787 -0.0438704)
(0.000955642 0.00189227 -0.0424177)
(0.000786591 0.00190773 -0.0361837)
(0.0013399 0.00235982 -0.0317416)
(0.000720028 0.00148669 -0.0440217)
(0.00031215 0.00151563 -0.0414237)
(0.000980035 0.0013327 -0.0365417)
(0.000444128 0.00153152 -0.0330027)
(3.16437e-05 9.82095e-05 -0.0551175)
(0.000688057 0.000108082 -0.0554459)
(0.00028506 0.000204516 -0.0550262)
(0.000368174 8.6494e-05 -0.0554952)
(0.000657521 6.74477e-05 -0.0554205)
(0.000378085 5.6782e-06 -0.0555105)
(0.000633404 9.48036e-05 -0.0553384)
(0.000548624 0.000461514 -0.0510628)
(0.00136501 0.000312345 -0.0537965)
(0.00105091 0.00062775 -0.0497006)
(0.000810989 0.0001419 -0.0538861)
(0.0011903 0.000303439 -0.0516264)
(0.000844551 0.000117387 -0.0535512)
(0.00125673 0.000233212 -0.0505276)
(0.00194234 0.000772489 -0.0363068)
(0.00198139 0.000976401 -0.0427234)
(0.00245011 0.00130641 -0.0320524)
(0.00152928 0.000770066 -0.0441895)
(0.00138213 0.000994677 -0.0366893)
(0.00160278 0.00034805 -0.0417116)
(0.00162743 0.000454485 -0.0333025)
(0.00171014 0.000159728 -0.024843)
(0.000276046 0.00162007 -0.0249835)
(0.00181681 0.00170376 -0.0196664)
(0.00123777 0.00117686 -0.0270986)
(0.00016349 0.00145523 -0.0231709)
(0.00156363 0.000169514 -0.023324)
(-9.43917e-05 -0.000194968 -0.0198205)
(5.08726e-05 0.000503852 -0.0558245)
(0.000226632 0.000160419 -0.055744)
(0.000213672 0.000481413 -0.0556901)
(0.00010413 0.000269537 -0.0559486)
(8.63672e-05 0.000353646 -0.0559854)
(0.000231268 0.000518446 -0.0559743)
(0.000180086 0.000597866 -0.0559313)
(6.76587e-05 0.000565066 -0.0557659)
(8.96592e-05 0.000377385 -0.0554822)
(8.39964e-05 0.000511015 -0.055365)
(5.62381e-05 0.000429887 -0.0558816)
(1.25333e-05 0.000446125 -0.0558723)
(8.64343e-05 0.000701415 -0.0557567)
(4.92206e-05 0.000707638 -0.055651)
(9.50155e-05 0.00071127 -0.0557235)
(0.000693501 0.000132628 -0.0557241)
(0.000582318 0.000619488 -0.0554888)
(0.000284167 0.000307664 -0.0558677)
(0.000425256 0.000402791 -0.055902)
(0.000381092 0.000458041 -0.0559025)
(0.000614281 0.000654817 -0.0557899)
(0.000234552 0.000980096 -0.0551762)
(0.000851311 0.000558994 -0.0547938)
(0.000664993 0.00116107 -0.0534786)
(0.000347928 0.000703187 -0.0555623)
(0.000275301 0.000878112 -0.0552862)
(0.000562233 0.00111824 -0.0550983)
(0.000620676 0.00126253 -0.0538759)
(0.000128696 0.00110691 -0.0540537)
(0.0003783 0.00115388 -0.0514539)
(0.000273225 0.00129499 -0.0499899)
(0.000146711 0.000981558 -0.0545769)
(8.68914e-05 0.00100987 -0.0541354)
(0.000395768 0.00140554 -0.0518607)
(0.000215771 0.00147275 -0.05039)
(0.00015911 0.000258345 -0.0557416)
(0.000503413 7.24089e-05 -0.0558231)
(0.000481718 0.000242917 -0.0556886)
(0.00026635 0.00012947 -0.0559495)
(0.000509423 0.000266763 -0.0559725)
(0.000356935 0.000109442 -0.0559873)
(0.000599189 0.000212955 -0.0559288)
(0.000549949 0.000897299 -0.0547933)
(0.000984231 0.000281255 -0.0551819)
(0.00115823 0.000735995 -0.053498)
(0.000698609 0.000395609 -0.0555628)
(0.00109057 0.000633685 -0.0551005)
(0.000888043 0.000327566 -0.0552904)
(0.0012607 0.000698604 -0.0538919)
(0.00101101 0.00173149 -0.0494871)
(0.00170386 0.00106799 -0.0495306)
(0.00172438 0.001746 -0.0424707)
(0.0011594 0.00120341 -0.053026)