#           x         0.001         0.001         0.001
#           y         0.001         0.001         0.001
#           z           0.6          -0.6            -1
#        Time
       40.218        485.96       549.335       461.168
      40.7378        484.46       548.602       461.092
      41.2576       483.165       547.914       460.903
      41.7774       482.077       547.295       460.642
      42.2971       481.139        546.73       460.342
      42.8169       480.311       546.205       460.019
      43.3367       479.566       545.712       459.683
      43.8565       478.887       545.245       459.339
      44.3763        478.26       544.799       458.992
       44.896       477.675       544.373       458.647
      45.4145       477.126       543.964       458.305
      45.9326       476.607       543.572        457.97
      46.4508       476.112       543.193       457.643
      46.9689       475.639       542.828       457.324
       47.487       475.184       542.475       457.015
      48.0052       474.745       542.132       456.716
      48.5233        474.32         541.8       456.427
      49.0415       473.909       541.478       456.148
      49.5596       473.509       541.164       455.878
      50.0777       473.119       540.859       455.616
      50.5959        472.74        540.56       455.364
       51.114       472.369       540.269       455.118
      51.6321       472.007       539.984       454.881
      52.1503       471.652       539.705       454.649
      52.6684       471.304       539.431       454.424
      53.1865       470.963       539.162       454.205
      53.7047       470.628       538.898       453.991
      54.2228       470.299       538.638       453.781
      54.7409       469.976       538.382       453.576
      55.2591       469.658        538.13       453.375
      55.7772       469.344       537.881       453.178
      56.2953       469.036       537.635       452.984
      56.8135       468.731       537.393       452.794
      57.3316       468.431       537.154       452.606
      57.8497       468.135       536.917       452.421
      58.3679       467.843       536.683        452.24
       58.886       467.555       536.451        452.06
      59.4041        467.27       536.221       451.883
      59.9223       466.988       535.994       451.708
      60.4404       466.709       535.769       451.535
      60.9585       466.434       535.546       451.364
      61.4767       466.162       535.324       451.195
      61.9948       465.892       535.105       451.028
       62.513       465.625       534.887       450.862
      63.0311       465.361       534.671       450.698
      63.5492         465.1       534.456       450.536
      64.0674       464.841       534.243       450.375
      64.5855       464.584       534.032       450.216
      65.1036        464.33       533.821       450.057
      65.6218       464.078       533.612       449.901
      66.1399       463.828       533.405       449.745
       66.658        463.58       533.198       449.591
      67.1762       463.334       532.993       449.437
      67.6943        463.09       532.789       449.285
      68.2124       462.849       532.586       449.134
      68.7306       462.609       532.384       448.984
      69.2487        462.37       532.183       448.835
      69.7668       462.134       531.983       448.687
       70.285       461.899       531.784        448.54
      70.8031       461.666       531.586       448.393
      71.3212       461.435       531.389       448.248
      71.8394       461.205       531.193       448.103
      72.3575       460.977       530.998       447.959
      72.8756        460.75       530.803       447.816
      73.3938       460.525       530.609       447.674
      73.9119       460.302       530.416       447.532
      74.4301       460.079       530.224       447.392
      74.9482       459.858       530.032       447.252
      75.4663       459.639       529.841       447.112
      75.9845        459.42       529.651       446.973
      76.5026       459.203       529.461       446.835
      77.0207       458.987       529.272       446.698
      77.5389       458.773       529.084       446.561
       78.057        458.56       528.896       446.424
      78.5751       458.347       528.709       446.288
      79.0933       458.136       528.522       446.153
      79.6114       457.927       528.336       446.019
      80.1295       457.718       528.151       445.884
      80.6477        457.51       527.966       445.751
      81.1658       457.304       527.781       445.617
      81.6839       457.098       527.597       445.485
      82.2021       456.894       527.413       445.353
      82.7202        456.69        527.23       445.221
      83.2383       456.487       527.047        445.09
      83.7565       456.286       526.865       444.959
      84.2746       456.085       526.683       444.828
      84.7927       455.886       526.502       444.698
      85.3109       455.687       526.321       444.569
       85.829       455.489        526.14       444.439
      86.3472       455.292        525.96       444.311
      86.8653       455.096        525.78       444.182
      87.3834       454.901       525.601       444.054
      87.9016       454.707       525.422       443.926
      88.4197       454.513       525.243       443.799
      88.9378        454.32       525.064       443.672
       89.456       454.128       524.886       443.545
      89.9741       453.937       524.709       443.419
      90.4922       453.747       524.531       443.293
      91.0104       453.557       524.354       443.168
      91.5285       453.369       524.177       443.042
      92.0466       453.181           524       442.917
      92.5648       452.993       523.824       442.792
      93.0829       452.807       523.648       442.668
       93.601       452.621       523.472       442.544
      94.1192       452.436       523.297        442.42
      94.6373       452.251       523.122       442.296
      95.1554       452.068       522.947       442.173
      95.6736       451.884       522.772        442.05
      96.1917       451.702       522.597       441.927
      96.7098        451.52       522.423       441.805
       97.228       451.339       522.249       441.682
      97.7461       451.159       522.075        441.56
      98.2642       450.979       521.902       441.439
      98.7824         450.8       521.729       441.317
      99.3005       450.621       521.555       441.196
      99.8187       450.443       521.382       441.075
      100.337       450.266        521.21       440.954
      100.855       450.089       521.037       440.833
      101.373       449.913       520.865       440.713
      101.891       449.737       520.693       440.593
      102.409       449.562       520.521       440.473
      102.927       449.387       520.349       440.353
      103.446       449.214       520.177       440.233
      103.964        449.04       520.006       440.114
      104.482       448.867       519.835       439.995
          105       448.695       519.664       439.876
      105.518       448.523       519.493       439.757
      106.036       448.352       519.322       439.638
      106.554       448.181       519.151        439.52
      107.073       448.011       518.981       439.402
      107.591       447.842       518.811       439.284
      108.109       447.672       518.641       439.166
      108.627       447.504       518.471       439.048
      109.145       447.336       518.301       438.931
      109.663       447.168       518.131       438.813
      110.181       447.001       517.962       438.696
      110.699       446.834       517.792       438.579
      111.218       446.668       517.623       438.462
      111.736       446.502       517.454       438.345
      112.254       446.337       517.285       438.229
      112.772       446.172       517.116       438.112
       113.29       446.007       516.947       437.996
      113.808       445.843       516.778        437.88
      114.326        445.68        516.61       437.764
      114.845       445.517       516.441       437.648
      115.363       445.354       516.273       437.533
      115.881       445.192       516.105       437.417
      116.399        445.03       515.937       437.302
      116.917       444.869       515.769       437.186
      117.435       444.708       515.601       437.071
      117.953       444.548       515.433       436.956
      118.472       444.388       515.265       436.841
       118.99       444.228       515.098       436.727
      119.508       444.069        514.93       436.612
      120.026        443.91       514.763       436.498
      120.544       443.752       514.595       436.383
      121.062       443.594       514.428       436.269
       121.58       443.436       514.261       436.155
      122.098       443.279       514.094       436.041
      122.617       443.122       513.927       435.927
      123.135       442.965        513.76       435.813
      123.653       442.809       513.594         435.7
      124.171       442.653       513.427       435.586
      124.689       442.498       513.261       435.473
      125.207       442.343       513.094        435.36
      125.725       442.189       512.928       435.246
      126.244       442.034       512.761       435.133
      126.762        441.88       512.595        435.02
       127.28       441.727       512.429       434.908
      127.798       441.574       512.263       434.795
      128.316       441.421       512.097       434.682
      128.834       441.268       511.931        434.57
      129.352       441.116       511.765       434.457
       129.87       440.965       511.599       434.345
      130.389       440.813       511.434       434.233
      130.907       440.662       511.268       434.121
      131.425       440.511       511.103       434.009
      131.943       440.361       510.937       433.897
      132.461       440.211       510.772       433.785
      132.979       440.061       510.606       433.673
      133.497       439.912       510.441       433.561
      134.016       439.762       510.276        433.45
      134.534       439.614       510.111       433.338
      135.052       439.465       509.946       433.227
       135.57       439.317       509.781       433.116
      136.088       439.169       509.616       433.005
      136.606       439.022       509.451       432.894
      137.124       438.875       509.286       432.783
      137.642       438.728       509.121       432.672
      138.161       438.581       508.957       432.561
      138.679       438.435       508.792        432.45
      139.197       438.289       508.628        432.34
      139.715       438.143       508.463       432.229
      140.233       437.998       508.299       432.119
      140.751       437.853       508.134       432.008
      141.269       437.708        507.97       431.898
      141.788       437.564       507.806       431.788
      142.306       437.419       507.642       431.678
      142.824       437.275       507.478       431.568
      143.342       437.132       507.314       431.458
       143.86       436.989        507.15       431.348
      144.378       436.845       506.986       431.238
      144.896       436.703       506.822       431.128
      145.415        436.56       506.658       431.019
      145.933       436.418       506.494       430.909
      146.451       436.276       506.331         430.8
      146.969       436.134       506.167        430.69
      147.487       435.993       506.004       430.581
      148.005       435.852        505.84       430.472
      148.523       435.711       505.677       430.363
      149.041       435.571       505.513       430.254
       149.56        435.43        505.35       430.145
      150.078        435.29       505.187       430.036
      150.596       435.151       505.024       429.927
      151.114       435.011        504.86       429.818
      151.632       434.872       504.697        429.71
       152.15       434.733       504.534       429.601
      152.668       434.594       504.371       429.493
      153.187       434.456       504.209       429.384
      153.705       434.317       504.046       429.276
      154.223       434.179       503.883       429.168
      154.741       434.042        503.72       429.059
      155.259       433.904       503.558       428.951
      155.777       433.767       503.395       428.843
      156.295        433.63       503.232       428.735
      156.813       433.493        503.07       428.627
      157.332       433.357       502.908       428.519
       157.85       433.221       502.745       428.412
      158.368       433.085       502.583       428.304
      158.886       432.949       502.421       428.196
      159.404       432.814       502.258       428.089
      159.922       432.678       502.096       427.981
       160.44       432.543       501.934       427.874
      160.959       432.408       501.772       427.767
      161.477       432.274        501.61       427.659
      161.995        432.14       501.448       427.552
      162.513       432.006       501.287       427.445
      163.031       431.872       501.125       427.338
      163.549       431.738       500.963       427.231
      164.067       431.605       500.802       427.124
      164.585       431.472        500.64       427.017
      165.104       431.339       500.478        426.91
      165.622       431.206       500.317       426.804
       166.14       431.073       500.156       426.697
      166.658       430.941       499.994       426.591
      167.176       430.809       499.833       426.484
      167.694       430.677       499.672       426.378
      168.212       430.546       499.511       426.271
      168.731       430.414       499.349       426.165
      169.249       430.283       499.188       426.059
      169.767       430.152       499.027       425.953
      170.285       430.021       498.867       425.847
      170.803       429.891       498.706       425.741
      171.321       429.761       498.545       425.635
      171.839       429.631       498.384       425.529
      172.358       429.501       498.223       425.423
      172.876       429.371       498.063       425.317
      173.394       429.242       497.902       425.212
      173.912       429.112       497.742       425.106
       174.43       428.983       497.581       425.001
      174.948       428.854       497.421       424.895
      175.466       428.726       497.261        424.79
      175.984       428.597       497.101       424.684
      176.503       428.469        496.94       424.579
      177.021       428.341        496.78       424.474
      177.539       428.213        496.62       424.369
      178.057       428.086        496.46       424.264
      178.575       427.958         496.3       424.159
      179.093       427.831        496.14       424.054
      179.611       427.704       495.981       423.949
       180.13       427.577       495.821       423.844
      180.648       427.451       495.661        423.74
      181.166       427.324       495.502       423.635
      181.684       427.198       495.342        423.53
      182.202       427.072       495.183       423.426
       182.72       426.946       495.023       423.321
      183.238       426.821       494.864       423.217
      183.756       426.695       494.705       423.113
      184.275        426.57       494.545       423.008
      184.793       426.445       494.386       422.904
      185.311        426.32       494.227         422.8
      185.829       426.196       494.068       422.696
      186.347       426.071       493.909       422.592
      186.865       425.947        493.75       422.488
      187.383       425.823       493.592       422.384
      187.902       425.699       493.433       422.281
       188.42       425.575       493.274       422.177
      188.938       425.451       493.116       422.073
      189.456       425.328       492.957        421.97
      189.974       425.205       492.799       421.866
      190.492       425.082        492.64       421.763
       191.01       424.959       492.482       421.659
      191.528       424.837       492.324       421.556
      192.047       424.714       492.165       421.453
      192.565       424.592       492.007       421.349
      193.083        424.47       491.849       421.246
      193.601       424.348       491.691       421.143
      194.119       424.226       491.533        421.04
      194.637       424.105       491.375       420.937
      195.155       423.983       491.218       420.835
      195.674       423.862        491.06       420.732
      196.192       423.741       490.902       420.629
       196.71        423.62       490.745       420.526
      197.228       423.499       490.587       420.424
      197.746       423.379        490.43       420.321
      198.264       423.259       490.273       420.219
      198.782       423.138       490.115       420.116
      199.301       423.018       489.958       420.014
      199.819       422.899       489.801       419.912
      200.337       422.779       489.644        419.81
      200.855        422.66       489.487       419.708
      201.373        422.54        489.33       419.606
      201.891       422.421       489.173       419.504
      202.409       422.302       489.016       419.402
      202.927       422.183        488.86         419.3
      203.446       422.065       488.703       419.198
      203.964       421.946       488.547       419.096
      204.482       421.828        488.39       418.995
          205        421.71       488.234       418.893
      205.518       421.592       488.077       418.792
      206.036       421.474       487.921        418.69
      206.554       421.356       487.765       418.589
      207.073       421.239       487.609       418.487
      207.591       421.122       487.453       418.386
      208.109       421.005       487.297       418.285
      208.627       420.888       487.141       418.184
      209.145       420.771       486.985       418.083
      209.663       420.654        486.83       417.982
      210.181       420.538       486.674       417.881
      210.699       420.421       486.518        417.78
      211.218       420.305       486.363       417.679
      211.736       420.189       486.208       417.579
      212.254       420.073       486.052       417.478
      212.772       419.957       485.897       417.377
       213.29       419.842       485.742       417.277
      213.808       419.726       485.587       417.177
      214.326       419.611       485.432       417.076
      214.845       419.496       485.277       416.976
      215.363       419.381       485.122       416.876
      215.881       419.266       484.967       416.775
      216.399       419.152       484.813       416.675
      216.917       419.037       484.658       416.575
      217.435       418.923       484.503       416.475
      217.953       418.809       484.349       416.375
      218.472       418.695       484.195       416.276
       218.99       418.581        484.04       416.176
      219.508       418.467       483.886       416.076
      220.026       418.354       483.732       415.977
      220.544        418.24       483.578       415.877
      221.062       418.127       483.424       415.778
       221.58       418.014        483.27       415.678
      222.098       417.901       483.116       415.579
      222.617       417.788       482.963       415.479
      223.135       417.676       482.809        415.38
      223.653       417.563       482.656       415.281
      224.171       417.451       482.502       415.182
      224.689       417.338       482.349       415.083
      225.207       417.226       482.195       414.984
      225.725       417.114       482.042       414.885
      226.244       417.003       481.889       414.786
      226.762       416.891       481.736       414.688
       227.28        416.78       481.583       414.589
      227.798       416.668        481.43        414.49
      228.316       416.557       481.277       414.392
      228.834       416.446       481.125       414.293
      229.352       416.335       480.972       414.195
       229.87       416.224        480.82       414.097
      230.389       416.114       480.667       413.998
      230.907       416.003       480.515         413.9
      231.425       415.893       480.362       413.802
      231.943       415.783        480.21       413.704
      232.461       415.672       480.058       413.606
      232.979       415.563       479.906       413.508
      233.497       415.453       479.754        413.41
      234.016       415.343       479.602       413.312
      234.534       415.234       479.451       413.215
      235.052       415.124       479.299       413.117
       235.57       415.015       479.147        413.02
      236.088       414.906       478.996       412.922
      236.606       414.797       478.845       412.825
      237.124       414.688       478.693       412.727
      237.642       414.579       478.542        412.63
      238.161       414.471       478.391       412.533
      238.679       414.362        478.24       412.436
      239.197       414.254       478.089       412.338
      239.715       414.146       477.938       412.241
      240.233       414.038       477.787       412.144
      240.751        413.93       477.636       412.048
      241.269       413.822       477.486       411.951
      241.788       413.715       477.335       411.854
      242.306       413.607       477.185       411.757
      242.824         413.5       477.035       411.661
      243.342       413.393       476.884       411.564
       243.86       413.286       476.734       411.468
      244.378       413.179       476.584       411.371
      244.896       413.072       476.434       411.275
      245.415       412.965       476.284       411.179
      245.933       412.859       476.134       411.082
      246.451       412.752       475.985       410.986
      246.969       412.646       475.835        410.89
      247.487        412.54       475.686       410.794
      248.005       412.434       475.536       410.698
      248.523       412.328       475.387       410.603
      249.041       412.222       475.238       410.507
       249.56       412.116       475.088       410.411
      250.078       412.011       474.939       410.315
      250.596       411.905        474.79        410.22
      251.114         411.8       474.641       410.124
      251.632       411.695       474.493       410.029
       252.15        411.59       474.344       409.934
      252.668       411.485       474.195       409.838
      253.187        411.38       474.047       409.743
      253.705       411.276       473.898       409.648
      254.223       411.171        473.75       409.553
      254.741       411.067       473.602       409.458
      255.259       410.963       473.454       409.363
      255.777       410.859       473.306       409.268
      256.295       410.755       473.158       409.173
      256.813       410.651        473.01       409.078
      257.332       410.547       472.862       408.984
       257.85       410.443       472.714       408.889
      258.368        410.34       472.567       408.795
      258.886       410.236       472.419         408.7
      259.404       410.133       472.272       408.606
      259.922        410.03       472.125       408.511
       260.44       409.927       471.977       408.417
      260.959       409.824        471.83       408.323
      261.477       409.721       471.683       408.229
      261.995       409.619       471.536       408.135
      262.513       409.516        471.39       408.041
      263.031       409.414       471.243       407.947
      263.549       409.311       471.096       407.853
      264.067       409.209        470.95       407.759
      264.585       409.107       470.803       407.666
      265.104       409.005       470.657       407.572
      265.622       408.903       470.511       407.479
       266.14       408.802       470.364       407.385
      266.658         408.7       470.218       407.292
      267.176       408.599       470.072       407.198
      267.694       408.497       469.927       407.105
      268.212       408.396       469.781       407.012
      268.731       408.295       469.635       406.919
      269.249       408.194        469.49       406.826
      269.767       408.093       469.344       406.733
      270.285       407.992       469.199        406.64
      270.803       407.892       469.053       406.547
      271.321       407.791       468.908       406.454
      271.839       407.691       468.763       406.361
      272.358        407.59       468.618       406.269
      272.876        407.49       468.473       406.176
      273.394        407.39       468.328       406.084
      273.912        407.29       468.184       405.991
       274.43        407.19       468.039       405.899
      274.948       407.091       467.895       405.807
      275.466       406.991        467.75       405.714
      275.984       406.892       467.606       405.622
      276.503       406.792       467.462        405.53
      277.021       406.693       467.318       405.438
      277.539       406.594       467.174       405.346
      278.057       406.495        467.03       405.254
      278.575       406.396       466.886       405.163
      279.093       406.297       466.742       405.071
      279.611       406.198       466.599       404.979
       280.13         406.1       466.455       404.888
      280.648       406.001       466.312       404.796
      281.166       405.903       466.168       404.705
      281.684       405.805       466.025       404.613
      282.202       405.706       465.882       404.522
       282.72       405.608       465.739       404.431
      283.238        405.51       465.596        404.34
      283.756       405.413       465.453       404.249
      284.275       405.315        465.31       404.158
      284.793       405.217       465.168       404.067
      285.311        405.12       465.025       403.976
      285.829       405.022       464.883       403.885
      286.347       404.925        464.74       403.794
      286.865       404.828       464.598       403.704
      287.383       404.731       464.456       403.613
      287.902       404.634       464.314       403.522
       288.42       404.537       464.172       403.432
      288.938        404.44        464.03       403.342
      289.456       404.344       463.889       403.251
      289.974       404.247       463.747       403.161
      290.492       404.151       463.605       403.071
       291.01       404.055       463.464       402.981
      291.528       403.958       463.323       402.891
      292.047       403.862       463.181       402.801
      292.565       403.766        463.04       402.711
      293.083        403.67       462.899       402.621
      293.601       403.575       462.758       402.531
      294.119       403.479       462.618       402.442
      294.637       403.383       462.477       402.352
      295.155       403.288       462.336       402.262
      295.674       403.193       462.196       402.173
      296.192       403.097       462.055       402.084
       296.71       403.002       461.915       401.994
      297.228       402.907       461.775       401.905
      297.746       402.812       461.635       401.816
      298.264       402.717       461.495       401.727
      298.782       402.623       461.355       401.638
      299.301       402.528       461.215       401.549
      299.819       402.434       461.075        401.46
      300.337       402.339       460.935       401.371
      300.855       402.245       460.796       401.282
      301.373       402.151       460.657       401.193
      301.891       402.057       460.517       401.105
      302.409       401.963       460.378       401.016
      302.927       401.869       460.239       400.928
      303.446       401.775         460.1       400.839
      303.964       401.681       459.961       400.751
      304.482       401.588       459.822       400.663
          305       401.494       459.684       400.574
      305.518       401.401       459.545       400.486
      306.036       401.307       459.406       400.398
      306.554       401.214       459.268        400.31
      307.073       401.121        459.13       400.222
      307.591       401.028       458.992       400.134
      308.109       400.935       458.853       400.047
      308.627       400.842       458.715       399.959
      309.145        400.75       458.578       399.871
      309.663       400.657        458.44       399.784
      310.181       400.565       458.302       399.696
      310.699       400.472       458.165       399.609
      311.218        400.38       458.027       399.521
      311.736       400.288        457.89       399.434
      312.254       400.196       457.752       399.347
      312.772       400.104       457.615        399.26
       313.29       400.012       457.478       399.172
      313.808        399.92       457.341       399.085
      314.326       399.828       457.204       398.999
      314.845       399.737       457.068       398.912
      315.363       399.645       456.931       398.825