/*--------------------------------*- C++ -*----------------------------------*\
| =========                 |                                                 |
| \\      /  F ield         | OpenFOAM: The Open Source CFD Toolbox           |
|  \\    /   O peration     | Version:  2.2.1                                 |
|   \\  /    A nd           | Web:      www.OpenFOAM.org                      |
|    \\/     M anipulation  |                                                 |
\*---------------------------------------------------------------------------*/
FoamFile
{
    version     2.0;
    format      ascii;
    class       volScalarField;
    location    "14.66426";
    object      p;
}
// * * * * * * * * * * * * * * * * * * * * * * * * * * * * * * * * * * * * * //

dimensions      [1 -1 -2 0 0 0 0];

internalField   nonuniform List<scalar> 
25373
(
-0.039176
-0.00573201
-0.0391179
-0.0113608
0.0042167
-0.00585059
-0.00648982
0.0116747
-0.0538924
0.000376904
-0.00891365
0.0561649
-0.0277596
-0.028084
-0.0279308
-0.024089
-0.0263289
-0.0288773
-0.022949
-0.0175318
-0.0326711
-0.0224166
-0.0127695
-0.00492632
-0.0319374
-0.0259292
-0.0320971
-0.0215537
-0.0122533
-0.0273515
-0.0125449
0.0240683
-0.0352206
-0.0276312
-0.00347965
0.0911345
-0.0533938
-0.0517207
-0.0537388
-0.0505411
-0.0476904
-0.0528183
-0.0483091
-0.042524
-0.053796
-0.0521981
-0.046542
-0.0455406
-0.078491
-0.077411
-0.0787363
-0.0773665
-0.0747108
-0.0781654
-0.0753398
-0.0685508
-0.0786973
-0.0774652
-0.0723996
-0.0576625
-0.105239
-0.105102
-0.10535
-0.106004
-0.106632
-0.10563
-0.107019
-0.106416
-0.105917
-0.106437
-0.107536
-0.101518
-0.13043
-0.131793
-0.130366
-0.133746
-0.141025
-0.132094
-0.141655
-0.158847
-0.131944
-0.135482
-0.151484
-0.183634
-0.147783
-0.151297
-0.147525
-0.153375
-0.167571
-0.150777
-0.168508
-0.208585
-0.149646
-0.15639
-0.188616
-0.271004
-0.155018
-0.160417
-0.154344
-0.16247
-0.177031
-0.158885
-0.17594
-0.230647
-0.157003
-0.16836
-0.208469
-0.293537
-0.136936
-0.144024
-0.135866
-0.148195
-0.17502
-0.141262
-0.17305
-0.220462
-0.137418
-0.149319
-0.193718
-0.305703
-0.0541675
0.00705155
-0.0569338
-0.0454742
-0.0385461
0.00638896
0.0100148
0.00857858
-0.0494135
-0.0492491
-0.0376668
0.00111816
0.00122214
0.00323129
-0.0355706
-0.0276257
-0.0317366
-0.00347158
0.002408
-0.00246893
0.00658747
-0.0539955
0.00763106
-0.0277965
-0.0358326
-0.0316633
-0.00343798
-0.00103765
0.00369353
0.00912088
-0.0470173
-0.0578615
-0.0385945
0.00893114
0.00663426
0.00741785
-0.0358034
-0.055743
-0.0334523
0.00789684
0.00842748
0.00785805
0.00801652
-0.0333822
-0.0234776
-0.0331012
-0.0331021
-0.0318124
-0.0235588
-0.0257374
-0.0217183
-0.0319752
-0.0319286
-0.0317043
-0.0274827
-0.0275441
-0.0243439
-0.0313401
-0.0288368
-0.0299126
-0.0280212
-0.0266885
-0.0297613
-0.0151035
-0.0337893
-0.024195
-0.0291466
-0.0316316
-0.0297247
-0.0282899
-0.030094
-0.0275642
-0.0188488
-0.0337418
-0.0340731
-0.0325477
-0.024504
-0.0236127
-0.021452
-0.0313007
-0.0332937
-0.0306819
-0.0222653
-0.0185789
-0.0222253
-0.016602
-0.0383948
-0.0453697
-0.0369766
-0.0347171
-0.0372181
-0.0452629
-0.0454642
-0.0448259
-0.0359921
-0.0358938
-0.037732
-0.0459095
-0.0458067
-0.045247
-0.0366533
-0.0355667
-0.0411919
-0.0462486
-0.0454939
-0.0452409
-0.0444317
-0.038183
-0.0454791
-0.0354365
-0.0363278
-0.0400876
-0.0462512
-0.0456098
-0.0452856
-0.0447944
-0.0351986
-0.0371617
-0.037714
-0.0454345
-0.0445807
-0.0445267
-0.0364899
-0.0362958
-0.0377301
-0.0437612
-0.0436128
-0.0435751
-0.0432383
-0.0556108
-0.0672711
-0.0536847
-0.0539116
-0.0539905
-0.0667404
-0.0663003
-0.0664832
-0.0550901
-0.0550746
-0.0551634
-0.0672311
-0.0669401
-0.067119
-0.0549199
-0.0548031
-0.0553498
-0.0663149
-0.0667233
-0.0661665
-0.0671682
-0.0558475
-0.066876
-0.0551766
-0.0550857
-0.0556377
-0.0661199
-0.0665012
-0.0662966
-0.0670278
-0.0544726
-0.0542264
-0.0547048
-0.0662599
-0.0662629
-0.0662019
-0.0538979
-0.0536775
-0.0538459
-0.0652133
-0.0654146
-0.0653901
-0.065647
-0.0794309
-0.0926677
-0.0782839
-0.0782804
-0.0782647
-0.0926676
-0.0917745
-0.0921947
-0.0794495
-0.0793716
-0.0792284
-0.0924753
-0.0922526
-0.0924588
-0.0788225
-0.0787229
-0.0788127
-0.0916428
-0.0921844
-0.091902
-0.0933117
-0.0796732
-0.0923599
-0.0791475
-0.0789142
-0.0790378
-0.0914656
-0.0921744
-0.0917776
-0.0931084
-0.0790117
-0.0789628
-0.0789677
-0.0918618
-0.0922635
-0.0919835
-0.0788304
-0.078401
-0.0785017
-0.0913934
-0.0917405
-0.0916632
-0.0920616
-0.106035
-0.119309
-0.105566
-0.105213
-0.105384
-0.119938
-0.118765
-0.119536
-0.10579
-0.105677
-0.105681
-0.118724
-0.118468
-0.118726
-0.105496
-0.105787
-0.1066
-0.118275
-0.118897
-0.119133
-0.121496
-0.10629
-0.11886
-0.106069
-0.105558
-0.106722
-0.118101
-0.119296
-0.118456
-0.121113
-0.105843
-0.106218
-0.106017
-0.118714
-0.119496
-0.11908
-0.106387
-0.105964
-0.106404
-0.118796
-0.119638
-0.118929
-0.120035
-0.131564
-0.142112
-0.13192
-0.131151
-0.131799
-0.143526
-0.141612
-0.14325
-0.13047
-0.130507
-0.130613
-0.140488
-0.140268
-0.140837
-0.131086
-0.13184
-0.134037
-0.140527
-0.141669
-0.142393
-0.147055
-0.131475
-0.14139
-0.131877
-0.131032
-0.133993
-0.140288
-0.142418
-0.141095
-0.14646
-0.131332
-0.132164
-0.131998
-0.141183
-0.142251
-0.142313
-0.133209
-0.132212
-0.133488
-0.141822
-0.143401
-0.142216
-0.144414
-0.148846
-0.152627
-0.150172
-0.149868
-0.15027
-0.154427
-0.152811
-0.154834
-0.147393
-0.147268
-0.147294
-0.150103
-0.14978
-0.150821
-0.148863
-0.149881
-0.152436
-0.150342
-0.152464
-0.154259
-0.161484
-0.148219
-0.15139
-0.149603
-0.148483
-0.151876
-0.14989
-0.153839
-0.151548
-0.160438
-0.148855
-0.149463
-0.149259
-0.151525
-0.152127
-0.152691
-0.151451
-0.149685
-0.151459
-0.151806
-0.154976
-0.152525
-0.156684
-0.15574
-0.146219
-0.158404
-0.156562
-0.158239
-0.148619
-0.147514
-0.149398
-0.153827
-0.153607
-0.154026
-0.143938
-0.143532
-0.144361
-0.155766
-0.156181
-0.159887
-0.144225
-0.146495
-0.148479
-0.154656
-0.154178
-0.144885
-0.155529
-0.15449
-0.158947
-0.143378
-0.147974
-0.145539
-0.154056
-0.154286
-0.156023
-0.156121
-0.145875
-0.145756
-0.146977
-0.157033
-0.15621
-0.158091
-0.145545
-0.150011
-0.146354
-0.151708
-0.138194
-0.141342
-0.139113
-0.142123
-0.135541
-0.135116
-0.136061
-0.138667
-0.139616
-0.146371
-0.13558
-0.138897
-0.136757
-0.14411
-0.135868
-0.137089
-0.13774
-0.139167
-0.138198
-0.141597
-0.0350562
-0.039661
-0.0428925
-0.0468766
-0.045136
-0.0424746
-0.0449745
-0.0381676
-0.034724
-0.0473649
-0.0448745
-0.0416486
-0.0412167
-0.0433459
-0.0269561
-0.0322429
-0.0488975
-0.0418928
-0.0390159
-0.0359218
-0.039965
-0.0365265
-0.0360063
-0.0421018
-0.0465398
-0.0440406
-0.043888
-0.0447265
-0.0344558
-0.0273186
-0.0512386
-0.0381982
-0.0367669
-0.033594
-0.0412882
-0.0093049
-0.00951384
-0.104478
-0.0160978
-0.0337451
-0.0289791
0.00972013
-0.0371657
-0.0304585
-0.0394668
-0.0425764
-0.0414379
-0.0416994
-0.0431133
-0.0500591
-0.00399572
-0.06753
-0.0248547
-0.0267669
-0.0300933
-0.0221468
-0.0696141
0.0725329
-0.134292
-0.0156333
0.00458727
-0.0368831
0.0249026
-0.0533024
-0.0535289
-0.0535718
-0.0644241
-0.0656308
-0.0639502
-0.0653267
-0.053346
-0.0524195
-0.0542826
-0.0622004
-0.0636536
-0.0627222
-0.0647159
-0.0482644
-0.0470375
-0.0467174
-0.0550945
-0.0588354
-0.0562346
-0.058059
-0.0542859
-0.0535472
-0.0546028
-0.0636378
-0.0646274
-0.0643843
-0.0651234
-0.0479667
-0.0459969
-0.0456251
-0.0535211
-0.0572929
-0.0562379
-0.0580509
-0.0365501
-0.0338386
-0.0397191
-0.0366288
-0.043793
-0.0407926
-0.0361935
-0.0526933
-0.051119
-0.0519576
-0.0608645
-0.0617241
-0.0615663
-0.0628266
-0.0447869
-0.0410019
-0.0443593
-0.0453994
-0.0466177
-0.0472874
-0.0500809
-0.0216852
-0.00731223
-0.0138714
-0.0159856
-0.0165335
-0.0268895
-0.0131999
-0.0776491
-0.0773492
-0.0768126
-0.090584
-0.0920609
-0.0912677
-0.0928977
-0.0774815
-0.076679
-0.0759793
-0.0896655
-0.0916346
-0.090776
-0.0933701
-0.0735462
-0.0714913
-0.0693599
-0.087032
-0.0898962
-0.0882652
-0.0907988
-0.0782407
-0.0777763
-0.0773017
-0.0902838
-0.0918257
-0.0911391
-0.0926837
-0.0730392
-0.0722875
-0.0687698
-0.0865826
-0.0895153
-0.0880817
-0.0905488
-0.0603986
-0.057441
-0.0479081
-0.0802035
-0.0826574
-0.0799411
-0.0786969
-0.0766892
-0.0766019
-0.0752088
-0.0896048
-0.0911445
-0.0899098
-0.0918859
-0.066576
-0.0687926
-0.0593815
-0.0843475
-0.0852862
-0.0839762
-0.0860356
-0.0408255
-0.0435241
-0.0297377
-0.072785
-0.0640816
-0.0661906
-0.0648851
-0.105909
-0.1064
-0.107093
-0.118801
-0.120943
-0.121793
-0.12539
-0.10721
-0.106778
-0.108428
-0.119546
-0.122801
-0.122201
-0.128322
-0.107947
-0.107593
-0.108411
-0.12289
-0.127512
-0.129026
-0.137615
-0.107257
-0.106195
-0.107747
-0.118732
-0.122168
-0.120177
-0.124764
-0.108967
-0.107401
-0.109153
-0.123026
-0.129909
-0.126313
-0.136462
-0.10791
-0.105759
-0.105656
-0.130671
-0.138172
-0.136376
-0.154302
-0.108437
-0.106512
-0.108449
-0.120589
-0.125786
-0.121338
-0.12711
-0.109461
-0.107066
-0.110101
-0.128428
-0.138228
-0.129234
-0.13993
-0.102652
-0.0957151
-0.102341
-0.143082
-0.157521
-0.140551
-0.154508
-0.133795
-0.136584
-0.139631
-0.143007
-0.146659
-0.149371
-0.156508
-0.138248
-0.137963
-0.144315
-0.145142
-0.151668
-0.150902
-0.162955
-0.147218
-0.150538
-0.158828
-0.155169
-0.164561
-0.170067
-0.18884
-0.1367
-0.134094
-0.139713
-0.142769
-0.149383
-0.145454
-0.155571
-0.151379
-0.14775
-0.158531
-0.155849
-0.170892
-0.163766
-0.186911
-0.173004
-0.17272
-0.195219
-0.18037
-0.203158
-0.202178
-0.251277
-0.143189
-0.136841
-0.143768
-0.147501
-0.158955
-0.149206
-0.161321
-0.166811
-0.154876
-0.167764
-0.169912
-0.198
-0.175787
-0.202394
-0.210384
-0.188707
-0.201164
-0.218541
-0.279518
-0.23827
-0.275748
-0.153659
-0.158668
-0.162811
-0.15487
-0.160601
-0.168024
-0.179311
-0.160069
-0.160257
-0.169519
-0.15963
-0.170772
-0.17085
-0.193709
-0.17761
-0.186052
-0.200112
-0.177941
-0.195293
-0.209921
-0.245634
-0.157337
-0.153795
-0.161467
-0.15439
-0.167186
-0.158365
-0.174697
-0.186139
-0.180134
-0.198531
-0.182578
-0.208015
-0.192305
-0.222786
-0.236405
-0.239924
-0.275468
-0.219631
-0.267755
-0.268495
-0.33276
-0.167397
-0.158218
-0.169164
-0.161208
-0.183089
-0.165421
-0.186693
-0.212996
-0.195947
-0.218302
-0.197501
-0.256557
-0.213367
-0.255419
-0.300927
-0.29078
-0.28945
-0.275326
-0.385911
-0.286332
-0.348709
-0.162991
-0.165075
-0.169739
-0.150122
-0.155006
-0.163133
-0.172985
-0.166527
-0.164937
-0.171666
-0.154007
-0.163655
-0.165531
-0.181372
-0.185986
-0.186719
-0.202639
-0.179776
-0.188278
-0.20153
-0.22719
-0.161247
-0.161319
-0.170488
-0.147428
-0.163441
-0.152186
-0.171914
-0.185293
-0.186605
-0.213165
-0.171748
-0.198149
-0.184994
-0.221669
-0.236072
-0.248473
-0.286418
-0.233
-0.250705
-0.246388
-0.230121
-0.169718
-0.164553
-0.17422
-0.153484
-0.17903
-0.157993
-0.18493
-0.195354
-0.199209
-0.221287
-0.183007
-0.254384
-0.195447
-0.237944
-0.40391
-0.279989
-0.441978
-0.283349
-0.282428
-0.340477
-0.280942
-0.148414
-0.152963
-0.167774
-0.160062
-0.158774
-0.178457
-0.187457
-0.195745
-0.213811
-0.149723
-0.145024
-0.158869
-0.194674
-0.184033
-0.212751
-0.208432
-0.202367
-0.353829
-0.163406
-0.153889
-0.173017
-0.221212
-0.197431
-0.233068
-0.274849
-0.17526
-0.314704
-0.273689
-0.299743
-0.274182
-0.185865
-0.457435
-0.305711
-0.418304
-0.231955
-0.410692
-0.439357
-0.272995
-0.307151
-0.342371
-0.30449
-0.327887
-0.439322
-0.226692
-0.138091
-0.401591
-0.119308
-0.122392
-0.121533
-0.123365
-0.117129
-0.11664
-0.117438
-0.117503
-0.120296
-0.121877
-0.127756
-0.117591
-0.116528
-0.121213
-0.11884
-0.126696
-0.119063
-0.118742
-0.120292
-0.119387
-0.124582
-0.119715
-0.125865
-0.124101
-0.129835
-0.13882
-0.149131
-0.127352
-0.140451
-0.140305
-0.159586
-0.154937
-0.175445
-0.188261
-0.121398
-0.136738
-0.126325
-0.146533
-0.151876
-0.184979
-0.170989
-0.130347
-0.162207
-0.132592
-0.350258
-0.436777
-0.426755
-0.4336
-0.486827
-0.321089
-0.415812
-0.364513
-0.47
-0.468964
-0.401716
-0.37872
-0.387155
-0.372222
-0.399495
-0.431777
-0.325768
-0.254288
-0.367058
-0.273924
-0.324027
-0.271327
-0.311578
-0.207374
-0.27483
-0.267478
-0.177507
-0.32029
-0.270105
-0.209134
-0.282772
-0.280134
-0.298987
-0.286005
-0.300187
-0.218851
-0.345825
-0.292594
-0.343052
-0.304803
-0.307172
-0.27812
-0.24844
-0.242142
-0.231807
-0.279217
-0.302759
-0.20637
-0.300948
-0.428478
-0.436379
-0.425582
-0.338028
-0.303633
-0.257883
-0.40658
-0.304811
-0.279696
-0.326052
-0.229653
-0.313205
-0.48518
-0.313918
-0.397886
-0.30089
-0.325273
-0.410968
-0.443038
-0.412199
-0.263836
-0.351907
-0.279296
-0.236368
-0.258891
-0.324289
-0.321877
-0.338629
-0.205202
-0.322328
-0.338338
-0.323148
-0.325272
-0.318031
-0.363998
-0.346084
-0.238349
-0.357026
-0.304496
-0.35077
-0.411724
-0.31933
-0.312488
-0.469761
-0.513677
-0.590033
-0.514392
-0.459503
-0.393426
-0.389859
-0.592993
-0.573435
-0.565156
-0.454866
-0.609787
-0.455195
-0.422088
-0.413772
-0.57201
-0.479731
-0.534881
-0.532166
-0.375159
-0.445169
-0.467138
-0.498915
-0.507427
-0.454306
-0.477628
-0.378197
-0.371639
-0.391444
-0.465342
-0.587881
-0.594762
-0.481117
-0.420509
-0.433623
-0.558009
-0.613824
-0.424771
-0.222268
-0.220548
-0.231489
-0.278482
-0.275072
-0.165547
-0.185502
-0.189563
-0.269207
-0.601729
-0.579978
-0.528414
-0.634285
-0.527975
-0.630224
-0.554786
-0.597519
-0.498769
-0.540163
-0.614347
-0.464367
-0.554504
-0.466382
-0.573529
-0.503327
-0.593516
-0.595797
-0.506511
-0.347608
-0.144126
-0.323387
-0.376423
-0.0992713
-0.441043
-0.311553
-0.305714
-0.242765
-0.243026
-0.295945
-0.329871
-0.422996
-0.230489
-0.274213
-0.172871
-0.277421
-0.33083
-0.376059
-0.0920907
-0.334828
-0.232488
-0.078361
-0.245867
-0.395956
-0.33497
-0.362068
-0.107964
-0.415727
-0.348349
-0.393134
-0.27006
-0.428302
-0.420458
-0.430633
-0.432135
-0.196838
-0.325639
-0.368184
-0.434584
-0.403027
-0.397171
-0.229185
-0.425272
-0.1818
-0.444202
-0.452832
-0.446657
-0.435383
-0.186705
-0.471443
-0.457148
-0.203458
-0.478031
-0.476119
-0.339774
-0.373512
-0.449479
-0.471826
-0.443764
-0.295193
-0.252702
-0.311314
-0.182778
-0.432243
-0.388726
-0.390468
-0.186446
-0.344018
-0.306737
-0.360284
-0.337544
-0.305807
-0.354311
-0.285774
-0.276402
-0.279348
-0.421158
-0.510921
-0.462752
-0.437981
-0.300059
-0.0415655
-0.47005
-0.262197
-0.294555
-0.329905
-0.261786
-0.367348
-0.144802
-0.278778
-0.309253
-0.301147
-0.174179
-0.276521
-0.271419
-0.272694
-0.30409
-0.268968
-0.257269
-0.294943
-0.289578
-0.27033
-0.263331
-0.297735
-0.268316
-0.254185
-0.297046
-0.28548
-0.253748
-0.24921
-0.261932
-0.249575
-0.254754
-0.247205
-0.250261
-0.235323
-0.266639
-0.284251
-0.286845
-0.289797
-0.291344
-0.273809
-0.282273
-0.433712
-0.446868
-0.446877
-0.42613
-0.439145
-0.438606
-0.443107
-0.445599
-0.451029
-0.370876
-0.384746
-0.37991
-0.300899
-0.279514
-0.411101
-0.413066
-0.418144
-0.475559
-0.481408
-0.4857
-0.505709
-0.529955
-0.530878
-0.463114
-0.473891
-0.476557
-0.512027
-0.50113
-0.471542
-0.462792
-0.473086
-0.460344
-0.451824
-0.462833
-0.531676
-0.534906
-0.540392
-0.289295
-0.301247
-0.282731
-0.290524
-0.333107
-0.323286
-0.329468
-0.286331
-0.269068
-0.277051
-0.300765
-0.284446
-0.291719
-0.335776
-0.325007
-0.331998
-0.440997
-0.44046
-0.447639
-0.381498
-0.391385
-0.39069
-0.339159
-0.329355
-0.329934
-0.331239
-0.315467
-0.325732
-0.33387
-0.33091
-0.437492
-0.453167
-0.435087
-0.451819
-0.450493
-0.370563
-0.371423
-0.348679
-0.364126
-0.359035
-0.370786
-0.360582
-0.367464
-0.353286
-0.35159
-0.354147
-0.409613
-0.420868
-0.421945
-0.372467
-0.398485
-0.391607
-0.36878
-0.380005
-0.3773
-0.379538
-0.391173
-0.389186
-0.346142
-0.358567
-0.357915
-0.306566
-0.291539
-0.295045
-0.331385
-0.328105
-0.329614
-0.333483
-0.329169
-0.335355
-0.30162
-0.284767
-0.293136
-0.325632
-0.324473
-0.325683
-0.298521
-0.320443
-0.313575
-0.343128
-0.346788
-0.346891
-0.346264
-0.347721
-0.349872
-0.418663
-0.421881
-0.426318
-0.372757
-0.352037
-0.367827
-0.387403
-0.359604
-0.376963
-0.482554
-0.477953
-0.486144
-0.583431
-0.595925
-0.601674
-0.566752
-0.583913
-0.586522
-0.578085
-0.583179
-0.59051
-0.48484
-0.484215
-0.490938
-0.511713
-0.534363
-0.535411
-0.468503
-0.471911
-0.477931
-0.576544
-0.595976
-0.596236
-0.590063
-0.588605
-0.598909
-0.578192
-0.597108
-0.597412
-0.608932
-0.606227
-0.616408
-0.586069
-0.590649
-0.596587
-0.480849
-0.463412
-0.477706
-0.545372
-0.579669
-0.571369
-0.592677
-0.586767
-0.598506
-0.617369
-0.624948
-0.62497
-0.547546
-0.62801
-0.614729
-0.457537
-0.449832
-0.460825
-0.549035
-0.550641
-0.555754
-0.619747
-0.623215
-0.632076
-0.59662
-0.610828
-0.61481
-0.715387
-0.747159
-0.758648
-0.620915
-0.619452
-0.631369
-0.616841
-0.628614
-0.632711
-0.631156
-0.647399
-0.653666
-0.618698
-0.61057
-0.625472
-0.626403
-0.640383
-0.638848
-0.650595
-0.616078
-0.633157
-0.637372
-0.619666
-0.633688
-0.638935
-0.639249
-0.632617
-0.645691
-0.648802
-0.641984
-0.657368
-0.255146
-0.517828
-0.232758
-0.276315
-0.292565
-0.335006
-0.233349
-0.277205
-0.272162
-0.335198
-0.226443
-0.289316
-0.304654
-0.241856
-0.329086
-0.293118
-0.376888
-0.493696
-0.482758
-0.334191
-0.422665
-0.433868
-0.292046
-0.202902
-0.232488
-0.689259
-0.689018
-0.654524
-0.68616
-0.571818
-0.492716
-0.614205
-0.667482
-0.603123
-0.591855
-0.560807
-0.60002
-0.503087
-0.643432
-0.515404
-0.521296
-0.510054
-0.473971
-0.535875
-0.420111
-0.686808
-0.698033
-0.71394
-0.697586
-0.713921
-0.706699
-0.707281
-0.695051
-0.70815
-0.694881
-0.055086
-0.00870795
-0.00700028
0.0244106
0.0280873
-0.0308422
-0.0167373
-0.0126887
0.0129138
0.0307373
-0.0345072
-0.0267728
-0.00276068
0.0926547
0.0209444
-0.0525959
-0.0498378
-0.041171
-0.0241592
-0.00563227
-0.0775042
-0.0759603
-0.0701496
-0.0546159
-0.0255446
-0.104981
-0.105369
-0.106224
-0.100523
-0.0847462
-0.131615
-0.134913
-0.149519
-0.17808
-0.19755
-0.150646
-0.156699
-0.185863
-0.262395
-0.315941
-0.160018
-0.170957
-0.213169
-0.293444
-0.167264
-0.142812
-0.1555
-0.203051
-0.338867
-0.242693
-0.0572623
-0.0367983
-0.0345727
0.00667029
0.00655088
0.00761809
0.00762211
-0.0312824
-0.0303836
-0.0296216
-0.0213711
-0.0208627
-0.0200472
-0.0161315
-0.036257
-0.035458
-0.0375814
-0.0436728
-0.0438645
-0.0434432
-0.0430561
-0.0528453
-0.0529997
-0.0526811
-0.0655173
-0.0659552
-0.0652776
-0.065817
-0.0775135
-0.0777268
-0.0773004
-0.0913823
-0.0920266
-0.0914022
-0.0921156
-0.105053
-0.105397
-0.105294
-0.11899
-0.119473
-0.119569
-0.120534
-0.131835
-0.132835
-0.133114
-0.142523
-0.143847
-0.143807
-0.145972
-0.150513
-0.153037
-0.152607
-0.153791
-0.155631
-0.156737
-0.159876
-0.159107
-0.160562
-0.161699
-0.148545
-0.150564
-0.152498
-0.155359
-0.143345
-0.144784
-0.14821
-0.0314593
-0.037426
-0.0424891
-0.0419331
-0.0422632
-0.0406403
-0.0424802
-0.00942412
-0.0397122
-0.0495946
-0.036567
-0.0399464
-0.0271018
-0.032492
0.0574009
-0.0586342
-0.102313
-0.0446466
-0.0393187
0.0136306
0.0154617
0.00908146
-0.00992943
-0.045715
0.0143364
0.00219137
0.0113619
0.0159111
-0.050741
-0.0501672
-0.0483708
-0.0626053
-0.0636008
-0.0610252
-0.0628597
-0.0415061
-0.040086
-0.038335
-0.0507373
-0.0536534
-0.0466244
-0.0513337
-0.0205026
-0.0146323
-0.0146832
-0.0267176
-0.0317296
-0.0235631
-0.0212527
-0.00889644
-0.00991304
-0.0112277
-0.0111696
-0.0116968
-0.0123896
-0.010655
-0.0761781
-0.0751956
-0.0740531
-0.0900147
-0.0910865
-0.0900716
-0.0915873
-0.0701944
-0.0647946
-0.0626823
-0.0854404
-0.0869904
-0.0837765
-0.0852922
-0.0529362
-0.0382492
-0.0368089
-0.0728933
-0.0729864
-0.0654705
-0.06653
-0.0337818
-0.0290687
-0.0300033
-0.0603292
-0.0591633
-0.0565536
-0.060119
-0.10598
-0.106854
-0.106431
-0.120412
-0.121999
-0.125153
-0.127457
-0.107412
-0.106821
-0.104827
-0.127301
-0.130253
-0.136917
-0.141091
-0.102197
-0.0975978
-0.098715
-0.139013
-0.14331
-0.158674
-0.161195
-0.0923238
-0.0888294
-0.0899957
-0.151959
-0.145874
-0.141783
-0.156703
-0.136246
-0.142257
-0.143614
-0.147566
-0.150505
-0.157872
-0.162886
-0.153624
-0.163945
-0.168684
-0.168391
-0.175824
-0.193492
-0.204662
-0.189463
-0.204632
-0.21884
-0.210539
-0.233559
-0.266702
-0.286522
-0.204087
-0.190108
-0.201327
-0.255842
-0.268973
-0.256688
-0.262741
-0.158337
-0.17047
-0.170949
-0.162705
-0.168502
-0.183748
-0.190433
-0.191114
-0.215975
-0.219705
-0.196974
-0.215261
-0.259494
-0.266932
-0.272783
-0.313165
-0.300894
-0.265557
-0.277742
-0.383027
-0.374562
-0.303099
-0.295806
-0.289757
-0.353391
-0.33572
-0.301636
-0.293313
-0.166537
-0.174693
-0.17871
-0.156813
-0.163427
-0.180135
-0.187052
-0.20129
-0.195248
-0.225107
-0.187411
-0.207169
-0.259161
-0.255947
-0.28096
-0.424663
-0.43614
-0.287665
-0.36116
-0.294114
-0.316904
-0.29529
-0.275949
-0.303647
-0.299217
-0.158727
-0.170963
-0.187298
-0.202184
-0.230824
-0.238146
-0.296418
-0.322581
-0.308808
-0.189903
-0.340849
-0.306954
-0.303133
-0.319104
-0.304568
-0.213905
-0.280078
-0.277928
-0.25677
-0.353746
-0.314763
-0.340254
-0.295546
-0.299844
-0.268263
-0.243459
-0.324829
-0.287981
-0.313793
-0.288948
-0.262662
-0.268369
-0.295784
-0.285607
-0.262041
-0.277645
-0.285811
-0.25097
-0.294801
-0.202194
-0.293741
-0.279329
-0.241031
-0.235658
-0.274021
-0.242807
-0.223482
-0.291308
-0.256033
-0.209762
-0.207766
-0.247025
-0.244341
-0.250761
-0.214698
-0.436059
-0.286711
-0.340425
-0.359716
-0.328268
-0.342406
-0.476823
-0.44866
-0.314958
-0.366662
-0.244336
-0.418302
-0.44162
-0.262688
-0.153194
-0.445236
-0.340975
-0.123136
-0.124592
-0.128169
-0.13064
-0.134293
-0.138965
-0.165821
-0.494076
-0.33044
-0.373116
-0.434115
-0.479815
-0.415326
-0.397531
-0.435728
-0.415986
-0.41126
-0.460872
-0.474851
-0.279345
-0.317769
-0.337603
-0.25658
-0.42858
-0.290928
-0.283192
-0.268591
-0.317973
-0.388278
-0.279706
-0.286281
-0.333707
-0.326801
-0.306124
-0.309716
-0.339885
-0.229351
-0.277803
-0.267612
-0.301465
-0.175948
-0.333286
-0.295668
-0.244665
-0.318057
-0.330624
-0.311817
-0.314629
-0.324554
-0.261604
-0.278597
-0.281801
-0.279537
-0.244202
-0.245039
-0.347596
-0.286513
-0.274835
-0.285368
-0.264165
-0.304255
-0.305283
-0.323678
-0.234125
-0.317176
-0.327156
-0.286051
-0.291542
-0.273427
-0.246271
-0.26915
-0.250125
-0.261344
-0.263151
-0.25515
-0.284441
-0.245154
-0.264676
-0.24887
-0.252585
-0.258558
-0.262489
-0.29293
-0.280039
-0.254637
-0.264792
-0.271557
-0.249333
-0.261328
-0.265989
-0.251207
-0.234901
-0.24612
-0.25685
-0.246407
-0.246415
-0.277209
-0.273081
-0.280856
-0.273178
-0.248333
-0.281153
-0.274902
-0.288233
-0.288588
-0.277693
-0.288621
-0.248527
-0.301262
-0.280928
-0.287394
-0.264092
-0.282274
-0.24057
-0.292348
-0.262143
-0.289198
-0.263088
-0.284189
-0.277941
-0.284336
-0.31522
-0.313348
-0.24451
-0.313596
-0.309605
-0.314276
-0.320346
-0.265856
-0.27969
-0.296415
-0.302214
-0.296437
-0.243398
-0.291268
-0.295576
-0.304109
-0.29149
-0.288755
-0.281272
-0.277241
-0.25046
-0.248273
-0.255541
-0.261482
-0.264114
-0.269469
-0.286993
-0.215567
-0.274924
-0.289206
-0.283865
-0.267231
-0.247141
-0.252857
-0.273429
-0.266069
-0.272883
-0.224319
-0.277306
-0.274695
-0.279982
-0.272964
-0.248186
-0.245036
-0.245718
-0.252565
-0.243248
-0.224047
-0.244541
-0.21742
-0.46074
-0.486016
-0.455977
-0.358252
-0.322045
-0.278623
-0.425548
-0.323047
-0.33596
-0.29835
-0.343895
-0.255852
-0.332495
-0.502407
-0.434619
-0.461953
-0.325456
-0.318903
-0.394574
-0.307851
-0.353202
-0.47182
-0.443277
-0.2916
-0.31192
-0.379135
-0.352308
-0.3715
-0.239147
-0.355852
-0.365329
-0.350489
-0.358542
-0.266249
-0.289237
-0.349213
-0.344726
-0.395336
-0.266745
-0.366831
-0.382393
-0.375755
-0.324669
-0.447759
-0.356573
-0.351985
-0.31612
-0.446079
-0.310319
-0.466667
-0.586774
-0.525072
-0.401907
-0.399729
-0.50159
-0.527436
-0.528847
-0.477394
-0.502002
-0.425682
-0.404079
-0.41514
-0.493485
-0.629663
-0.623522
-0.512299
-0.482827
-0.490818
-0.420191
-0.621235
-0.592085
-0.580494
-0.465967
-0.465464
-0.61993
-0.426731
-0.426375
-0.469638
-0.589046
-0.485669
-0.54777
-0.545931
-0.468801
-0.585834
-0.635529
-0.464363
-0.171201
-0.189796
-0.202251
-0.272359
-0.497798
-0.601504
-0.489891
-0.622347
-0.60492
-0.498938
-0.545972
-0.675074
-0.559107
-0.532209
-0.630881
-0.627935
-0.541323
-0.621544
-0.608898
-0.533886
-0.61913
-0.298024
-0.218563
-0.260805
-0.25939
-0.278894
-0.272645
-0.276695
-0.364666
-0.164198
-0.365118
-0.357662
-0.312983
-0.331206
-0.386713
-0.35902
-0.347959
-0.311279
-0.31519
-0.329644
-0.300938
-0.287376
-0.290306
-0.31511
-0.321993
-0.340232
-0.23278
-0.420263
-0.293386
-0.163349
-0.289517
-0.346353
-0.388856
-0.126312
-0.34737
-0.273366
-0.103274
-0.277132
-0.409719
-0.304298
-0.271729
-0.305029
-0.284847
-0.272523
-0.283883
-0.298185
-0.309361
-0.284687
-0.278632
-0.318839
-0.296233
-0.306549
-0.283507
-0.302173
-0.242287
-0.275527
-0.25912
-0.26776
-0.263651
-0.261227
-0.287813
-0.258295
-0.240742
-0.265994
-0.254365
-0.262627
-0.266034
-0.282674
-0.294593
-0.238993
-0.263333
-0.303071
-0.286206
-0.275061
-0.278821
-0.297653
-0.225063
-0.252412
-0.287792
-0.284161
-0.262644
-0.453373
-0.450961
-0.4223
-0.26473
-0.448729
-0.211768
-0.4689
-0.471241
-0.472761
-0.48248
-0.222656
-0.501072
-0.485696
-0.243061
-0.348901
-0.383589
-0.128446
-0.425117
-0.365602
-0.421486
-0.287497
-0.445921
-0.43086
-0.451048
-0.430382
-0.209138
-0.335331
-0.385398
-0.5025
-0.503625
-0.357018
-0.472132
-0.394303
-0.492974
-0.456901
-0.28406
-0.326774
-0.317313
-0.27425
-0.3096
-0.322207
-0.20358
-0.268004
-0.305385
-0.28908
-0.406986
-0.474135
-0.381382
-0.285994
-0.286549
-0.293983
-0.426478
-0.536338
-0.456024
-0.482331
-0.395245
-0.28956
-0.314379
-0.32456
-0.291297
-0.325217
-0.367218
-0.351053
-0.313336
-0.295072
-0.294786
-0.301174
-0.306223
-0.34314
-0.309655
-0.0360934
-0.465557
-0.279598
-0.269693
-0.351658
-0.258382
-0.3659
-0.150403
-0.32253
-0.28926
-0.192428
-0.315981
-0.296653
-0.254599
-0.269163
-0.280262
-0.268087
-0.265928
-0.274113
-0.263289
-0.239387
-0.274627
-0.282399
-0.296866
-0.316347
-0.31466
-0.316785
-0.32525
-0.319082
-0.322878
-0.282566
-0.279796
-0.28254
-0.283015
-0.286823
-0.304608
-0.297216
-0.301223
-0.262661
-0.256076
-0.259102
-0.327065
-0.309831
-0.31829
-0.291576
-0.297234
-0.294829
-0.332883
-0.335929
-0.335515
-0.273136
-0.279989
-0.276926
-0.310385
-0.317539
-0.316465
-0.309714
-0.306809
-0.310489
-0.318742
-0.315335
-0.316052
-0.291291
-0.286776
-0.291272
-0.291452
-0.287081
-0.287891
-0.238296
-0.243802
-0.23568
-0.287591
-0.289502
-0.287705
-0.316356
-0.31122
-0.315094
-0.277733
-0.281239
-0.280897
-0.306112
-0.297887
-0.301922
-0.256229
-0.25824
-0.252268
-0.291788
-0.284347
-0.287293
-0.285948
-0.286748
-0.284663
-0.242536
-0.243364
-0.237463
-0.265589
-0.258176
-0.259264
-0.238811
-0.237355
-0.233082
-0.248314
-0.244788
-0.243682
-0.273631
-0.256833
-0.260361
-0.259365
-0.252675
-0.25136
-0.236764
-0.220569
-0.221896
-0.224933
-0.215564
-0.214294
-0.340046
-0.34427
-0.343092
-0.325737
-0.343244
-0.336718
-0.449126
-0.466167
-0.464972
-0.451119
-0.461842
-0.461186
-0.378955
-0.402523
-0.394238
-0.441451
-0.452305
-0.454145
-0.32323
-0.304044
-0.31398
-0.454402
-0.456767
-0.461851
-0.317405
-0.319906
-0.320282
-0.301514
-0.318061
-0.309414
-0.288875
-0.489377
-0.490949
-0.497359
-0.516946
-0.501928
-0.515041
-0.495485
-0.492185
-0.501547
-0.57906
-0.582126
-0.587764
-0.512806
-0.329501
-0.317281
-0.320747
-0.296841
-0.306862
-0.303606
-0.309089
-0.311831
-0.312133
-0.335393
-0.320223
-0.323304
-0.299952
-0.309897
-0.307022
-0.293063
-0.304482
-0.302996
-0.338292
-0.337117
-0.339083
-0.336431
-0.335383
-0.337275
-0.294553
-0.291066
-0.290512
-0.334506
-0.329608
-0.33502
-0.328452
-0.326104
-0.330159
-0.311089
-0.309796
-0.311716
-0.320825
-0.314094
-0.317849
-0.283053
-0.279273
-0.282377
-0.282121
-0.285977
-0.307963
-0.299028
-0.303675
-0.304612
-0.306698
-0.305479
-0.311461
-0.301761
-0.306553
-0.300472
-0.292944
-0.29688
-0.308309
-0.311275
-0.309852
-0.284689
-0.268864
-0.275967
-0.261664
-0.262287
-0.260108
-0.279222
-0.264853
-0.271025
-0.261572
-0.255126
-0.257839
-0.260497
-0.261298
-0.259067
-0.332303
-0.31551
-0.322379
-0.362487
-0.353917
-0.360103
-0.334934
-0.32036
-0.327019
-0.318298
-0.3015
-0.309425
-0.369638
-0.359744
-0.366486
-0.283863
-0.290338
-0.287548
-0.29654
-0.317029
-0.311282
-0.289441
-0.289201
-0.288851
-0.333734
-0.337453
-0.336816
-0.27898
-0.286283
-0.283082
-0.284684
-0.302897
-0.29821
-0.28359
-0.283291
-0.282876
-0.318545
-0.321498
-0.32103
-0.372702
-0.373238
-0.374638
-0.454562
-0.455728
-0.456266
-0.456095
-0.452249
-0.45506
-0.342797
-0.335978
-0.341727
-0.336603
-0.335857
-0.339777
-0.357543
-0.371999
-0.368061
-0.358789
-0.371531
-0.368523
-0.309165
-0.306062
-0.308724
-0.322725
-0.314426
-0.31864
-0.28546
-0.281245
-0.284482
-0.295356
-0.286942
-0.291037
-0.244131
-0.247606
-0.24086
-0.234489
-0.234025
-0.228382
-0.243886
-0.240689
-0.237269
-0.246677
-0.247689
-0.241628
-0.242407
-0.237656
-0.233506
-0.2249
-0.226271
-0.219638
-0.228653
-0.227728
-0.221691
-0.263803
-0.266521
-0.264467
-0.289742
-0.282682
-0.285011
-0.281206
-0.276489
-0.280076
-0.27196
-0.277041
-0.274634
-0.266392
-0.270152
-0.267598
-0.292048
-0.291647
-0.290609
-0.285712
-0.292002
-0.288413
-0.284946
-0.288285
-0.287925
-0.28865
-0.295697
-0.294725
-0.275109
-0.281029
-0.279126
-0.269905
-0.279223
-0.27476
-0.29348
-0.288286
-0.289896
-0.283746
-0.288276
-0.287325
-0.267281
-0.265686
-0.266431
-0.286353
-0.280878
-0.283016
-0.274567
-0.274184
-0.275917
-0.298603
-0.296143
-0.300148
-0.273249
-0.27914
-0.275411
-0.295704
-0.292355
-0.292404
-0.292552
-0.292165
-0.295174
-0.272236
-0.273654
-0.269984
-0.268254
-0.275338
-0.271842
-0.303012
-0.307538
-0.308653
-0.308375
-0.311817
-0.311772
-0.302764
-0.295561
-0.29933
-0.309653
-0.303814
-0.304166
-0.295165
-0.298417
-0.297338
-0.295387
-0.289951
-0.292679
-0.289899
-0.290571
-0.289495
-0.278522
-0.288501
-0.287743
-0.272137
-0.272126
-0.269759
-0.279003
-0.281455
-0.278909
-0.288578
-0.284822
-0.285168
-0.263131
-0.256046
-0.257559
-0.247234
-0.247872
-0.245744
-0.264704
-0.258844
-0.26055
-0.277518
-0.271149
-0.272664
-0.243681
-0.244785
-0.240544
-0.2475
-0.254354
-0.250335
-0.270633
-0.270231
-0.272113
-0.264281
-0.261421
-0.26172
-0.285712
-0.272904
-0.278854
-0.294497