/*--------------------------------*- C++ -*----------------------------------*\
| =========                 |                                                 |
| \\      /  F ield         | OpenFOAM: The Open Source CFD Toolbox           |
|  \\    /   O peration     | Version:  2.2.1                                 |
|   \\  /    A nd           | Web:      www.OpenFOAM.org                      |
|    \\/     M anipulation  |                                                 |
\*---------------------------------------------------------------------------*/
FoamFile
{
    version     2.0;
    format      ascii;
    class       volScalarField;
    location    "14.66426";
    object      p_0;
}
// * * * * * * * * * * * * * * * * * * * * * * * * * * * * * * * * * * * * * //

dimensions      [1 -1 -2 0 0 0 0];

internalField   nonuniform List<scalar> 
25373
(
-0.039172
-0.00572297
-0.0391137
-0.0113502
0.00422931
-0.00584096
-0.00647871
0.0116895
-0.0538879
0.000386734
-0.00890553
0.056168
-0.0277395
-0.0280626
-0.0279081
-0.0240616
-0.0263039
-0.0288478
-0.0229156
-0.0174872
-0.0326465
-0.0223856
-0.0127322
-0.00490701
-0.0319068
-0.0259055
-0.0320594
-0.0215167
-0.0122276
-0.0273118
-0.012491
0.0241479
-0.0351777
-0.027578
-0.00340124
0.0912842
-0.0533539
-0.0516864
-0.0536906
-0.0504934
-0.0476454
-0.0527644
-0.0482447
-0.0424372
-0.0537415
-0.0521358
-0.0464427
-0.0453552
-0.0784452
-0.0773702
-0.078684
-0.0773147
-0.0746603
-0.0781084
-0.0752766
-0.0684791
-0.0786404
-0.0774041
-0.072324
-0.0575687
-0.105191
-0.105057
-0.105296
-0.105951
-0.10658
-0.105575
-0.106961
-0.106354
-0.105862
-0.106381
-0.107474
-0.101452
-0.13038
-0.131745
-0.130313
-0.133694
-0.140973
-0.132041
-0.1416
-0.158788
-0.131894
-0.135431
-0.151427
-0.183576
-0.14773
-0.151243
-0.147472
-0.153321
-0.167522
-0.150725
-0.168452
-0.208519
-0.1496
-0.156344
-0.18857
-0.270943
-0.154963
-0.160358
-0.154293
-0.162442
-0.176974
-0.158837
-0.175891
-0.230608
-0.156961
-0.16832
-0.208423
-0.293504
-0.136879
-0.14397
-0.135817
-0.148164
-0.17502
-0.141228
-0.173045
-0.220522
-0.137382
-0.149289
-0.193691
-0.305641
-0.0541641
0.00706371
-0.0569305
-0.045471
-0.0385428
0.00640012
0.0100269
0.0085901
-0.0494096
-0.0492451
-0.0376627
0.00113187
0.00123646
0.00324544
-0.0355667
-0.0276213
-0.0317322
-0.00345839
0.00242057
-0.00245483
0.00660121
-0.0539914
0.00764623
-0.027792
-0.0358283
-0.031659
-0.00342346
-0.00102276
0.00370857
0.00913622
-0.0470132
-0.0578571
-0.0385901
0.00894684
0.00664981
0.00743348
-0.0357989
-0.0557386
-0.0334478
0.00791231
0.00844315
0.00787281
0.00803148
-0.0333642
-0.0234538
-0.0330845
-0.0330848
-0.0317956
-0.0235373
-0.0257154
-0.0216965
-0.0319542
-0.0319067
-0.0316826
-0.0274552
-0.0275151
-0.0243157
-0.0313208
-0.0288146
-0.0298911
-0.0279948
-0.0266636
-0.0297339
-0.0150767
-0.0337653
-0.0241638
-0.029123
-0.0316076
-0.0296995
-0.0282597
-0.030064
-0.0275334
-0.018818
-0.033717
-0.0340483
-0.0325226
-0.0244723
-0.0235791
-0.0214184
-0.0312751
-0.0332698
-0.0306568
-0.0222318
-0.0185449
-0.022192
-0.0165678
-0.038367
-0.0453369
-0.0369545
-0.034692
-0.0371955
-0.0452358
-0.0454334
-0.0447977
-0.035959
-0.0358575
-0.0376969
-0.0458713
-0.0457655
-0.045207
-0.0366238
-0.0355332
-0.04116
-0.0462124
-0.0454596
-0.0452022
-0.0443937
-0.0381436
-0.0454343
-0.0353986
-0.0362891
-0.0400455
-0.0462086
-0.0455666
-0.0452412
-0.0447472
-0.0351583
-0.0371198
-0.0376721
-0.0453882
-0.044533
-0.0444789
-0.0364458
-0.0362542
-0.0376865
-0.0437129
-0.0435625
-0.0435272
-0.043188
-0.0555744
-0.0672313
-0.0536538
-0.053878
-0.0539586
-0.066706
-0.066263
-0.0664476
-0.055048
-0.0550284
-0.0551191
-0.0671855
-0.0668918
-0.0670721
-0.0548815
-0.05476
-0.055308
-0.0662716
-0.0666817
-0.0661206
-0.0671227
-0.0557967
-0.0668238
-0.0551283
-0.0550354
-0.0555851
-0.0660702
-0.066451
-0.0662447
-0.0669737
-0.0544203
-0.0541725
-0.0546508
-0.0662065
-0.0662081
-0.066147
-0.0538419
-0.0536236
-0.0537894
-0.0651585
-0.0653582
-0.0653357
-0.0655907
-0.0793885
-0.0926253
-0.0782467
-0.0782404
-0.0782267
-0.0926314
-0.0917348
-0.0921571
-0.0794011
-0.079321
-0.0791786
-0.092428
-0.0922033
-0.0924103
-0.0787786
-0.0786744
-0.0787641
-0.0915979
-0.0921407
-0.0918548
-0.0932639
-0.0796183
-0.0923072
-0.0790954
-0.0788598
-0.0789821
-0.0914153
-0.0921239
-0.0917255
-0.0930547
-0.0789559
-0.0789057
-0.0789104
-0.0918085
-0.0922095
-0.0919294
-0.0787724
-0.0783446
-0.0784435
-0.0913397
-0.0916862
-0.0916099
-0.0920074
-0.105989
-0.119268
-0.105526
-0.10517
-0.105342
-0.119905
-0.118727
-0.119502
-0.105739
-0.105625
-0.10563
-0.118679
-0.118421
-0.118679
-0.105448
-0.105737
-0.10655
-0.118233
-0.118855
-0.119088
-0.121448
-0.106235
-0.11881
-0.106017
-0.105504
-0.106667
-0.118053
-0.119248
-0.118407
-0.121063
-0.105788
-0.106163
-0.105961
-0.118663
-0.119446
-0.11903
-0.106332
-0.105911
-0.106349
-0.118745
-0.119587
-0.118879
-0.119986
-0.131516
-0.142073
-0.131876
-0.131107
-0.131754
-0.143497
-0.141569
-0.143216
-0.130419
-0.130455
-0.130562
-0.140446
-0.140224
-0.140793
-0.131036
-0.131788
-0.13399
-0.140487
-0.14163
-0.142348
-0.14701
-0.131422
-0.141344
-0.131824
-0.130979
-0.133943
-0.140243
-0.142372
-0.141051
-0.146415
-0.131279
-0.132112
-0.131944
-0.141133
-0.142204
-0.142266
-0.133157
-0.132161
-0.133436
-0.141772
-0.143349
-0.142169
-0.14437
-0.148792
-0.152596
-0.150121
-0.14983
-0.150221
-0.1544
-0.152776
-0.154803
-0.14734
-0.147215
-0.147239
-0.150068
-0.149741
-0.150784
-0.14881
-0.149836
-0.152375
-0.150306
-0.152436
-0.154221
-0.161448
-0.148166
-0.151347
-0.149556
-0.148428
-0.151827
-0.149847
-0.153799
-0.151508
-0.160389
-0.148804
-0.149413
-0.149206
-0.151476
-0.152087
-0.15265
-0.151409
-0.149638
-0.151409
-0.151756
-0.154923
-0.152482
-0.156643
-0.155674
-0.146192
-0.158346
-0.156502
-0.158177
-0.148593
-0.147485
-0.14937
-0.153765
-0.153549
-0.153968
-0.143903
-0.143495
-0.144325
-0.155696
-0.156119
-0.159823
-0.144186
-0.146468
-0.148444
-0.15462
-0.154128
-0.144842
-0.155468
-0.154432
-0.158911
-0.143329
-0.147934
-0.145499
-0.153998
-0.154241
-0.155972
-0.156071
-0.145825
-0.145718
-0.146936
-0.156994
-0.156163
-0.158048
-0.145496
-0.149961
-0.146313
-0.151668
-0.138129
-0.141289
-0.139055
-0.142065
-0.135479
-0.135058
-0.135999
-0.138604
-0.139556
-0.146303
-0.135528
-0.138842
-0.1367
-0.144052
-0.135826
-0.137043
-0.137695
-0.139132
-0.138159
-0.141564
-0.0350336
-0.0396324
-0.0428794
-0.0468446
-0.0451077
-0.0424411
-0.044947
-0.03813
-0.0346811
-0.0473149
-0.0448321
-0.0416054
-0.0411682
-0.0432895
-0.026954
-0.032195
-0.0488193
-0.0418538
-0.0389908
-0.0358629
-0.039906
-0.0364781
-0.035964
-0.0420532
-0.0464933
-0.0439883
-0.0438378
-0.0446708
-0.034395
-0.0272639
-0.0511538
-0.0381442
-0.0366951
-0.033556
-0.0411969
-0.00917313
-0.00939879
-0.104322
-0.0160037
-0.0336358
-0.028851
0.00988919
-0.0371092
-0.0304087
-0.0394032
-0.0425197
-0.0413654
-0.0416414
-0.0430378
-0.049954
-0.00390784
-0.0673934
-0.0247302
-0.0266324
-0.0299824
-0.0219665
-0.0694132
0.072716
-0.134095
-0.0154266
0.00488776
-0.0365214
0.0257009
-0.053269
-0.0534904
-0.053537
-0.0643856
-0.0655936
-0.0639075
-0.0652846
-0.0532977
-0.0523649
-0.0542223
-0.0621511
-0.0636022
-0.0626663
-0.0646549
-0.0482238
-0.0469772
-0.046654
-0.0550468
-0.0587868
-0.0561735
-0.0579945
-0.0542284
-0.0534901
-0.0545381
-0.0635833
-0.0645684
-0.0643263
-0.0650589
-0.047893
-0.0459241
-0.0455266
-0.0534577
-0.0572189
-0.0561649
-0.0579619
-0.036459
-0.0337178
-0.0395759
-0.0365504
-0.0437032
-0.0406876
-0.0360787
-0.0526193
-0.0510557
-0.0518778
-0.0608033
-0.0616534
-0.0615039
-0.0627532
-0.0446584
-0.0408927
-0.0441873
-0.0453122
-0.0465097
-0.0471943
-0.0499581
-0.0214463
-0.00703662
-0.0134545
-0.0158499
-0.016394
-0.0267283
-0.0130219
-0.0776092
-0.0773034
-0.0767671
-0.0905438
-0.0920214
-0.0912237
-0.0928518
-0.0774295
-0.0766224
-0.0759198
-0.0896168
-0.0915838
-0.090723
-0.0933128
-0.0734977
-0.0714333
-0.0692997
-0.0869864
-0.0898449
-0.0882137
-0.0907417
-0.078182
-0.0777174
-0.0772372
-0.0902304
-0.0917698
-0.0910833
-0.0926249
-0.0729745
-0.0722188
-0.068691
-0.0865266
-0.0894523
-0.0880189
-0.0904793
-0.0603387
-0.0573624
-0.0478254
-0.0801486
-0.0825789
-0.0798701
-0.0786213
-0.076622
-0.0765407
-0.0751385
-0.0895486
-0.0910851
-0.0898531
-0.0918258
-0.0664906
-0.0687148
-0.0592854
-0.0842834
-0.0852198
-0.0839101
-0.0859633
-0.040733
-0.0434215
-0.0296368
-0.0727143
-0.0640296
-0.0661174
-0.0648151
-0.105865
-0.106352
-0.107042
-0.118764
-0.120912
-0.121754
-0.125342
-0.107159
-0.106723
-0.108372
-0.119501
-0.122757
-0.122155
-0.128268
-0.107895
-0.107539
-0.108353
-0.122851
-0.127468
-0.128987
-0.137568
-0.107202
-0.106139
-0.107688
-0.118681
-0.122118
-0.120127
-0.124713
-0.108912
-0.107343
-0.109091
-0.122976
-0.129859
-0.126261
-0.136401
-0.107872
-0.105696
-0.105584
-0.130627
-0.13812
-0.136325
-0.154258
-0.108378
-0.106456
-0.108389
-0.120538
-0.125735
-0.121288
-0.127062
-0.109392
-0.107006
-0.110037
-0.128377
-0.138175
-0.129183
-0.139874
-0.102569
-0.0956553
-0.102281
-0.143032
-0.157485
-0.140501
-0.15446
-0.133745
-0.136535
-0.139579
-0.142973
-0.146637
-0.149312
-0.156462
-0.138194
-0.137906
-0.144269
-0.145101
-0.151618
-0.150866
-0.16291
-0.147162
-0.150481
-0.158775
-0.155146
-0.164535
-0.170049
-0.188787
-0.136646
-0.134041
-0.139657
-0.142719
-0.149331
-0.145407
-0.155528
-0.151328
-0.147695
-0.158485
-0.155799
-0.170836
-0.163719
-0.186881
-0.17297
-0.172672
-0.195177
-0.180327
-0.203109
-0.202137
-0.251239
-0.143136
-0.136791
-0.143711
-0.14745
-0.158899
-0.149161
-0.161278
-0.166763
-0.15482
-0.167715
-0.16987
-0.197954
-0.175747
-0.202357
-0.210342
-0.188658
-0.201116
-0.218503
-0.279493
-0.238226
-0.275724
-0.153596
-0.158666
-0.16277
-0.154836
-0.160579
-0.167963
-0.179261
-0.160039
-0.160195
-0.169474
-0.159578
-0.170732
-0.170812
-0.19363
-0.177538
-0.185954
-0.200049
-0.177853
-0.195267
-0.20988
-0.245596
-0.157292
-0.153743
-0.16141
-0.154338
-0.167136
-0.158317
-0.174676
-0.186108
-0.180098
-0.19847
-0.182533
-0.207943
-0.19227
-0.222722
-0.236363
-0.239834
-0.275407
-0.21961
-0.267761
-0.268485
-0.332718
-0.167362
-0.158172
-0.169108
-0.161154
-0.183032
-0.165384
-0.186659
-0.212946
-0.19589
-0.218246
-0.197444
-0.256501
-0.213348
-0.255384
-0.300895
-0.290701
-0.289394
-0.275286
-0.385881
-0.286274
-0.34877
-0.162931
-0.165038
-0.169666
-0.150083
-0.154973
-0.163072
-0.172928
-0.166469
-0.164886
-0.171598
-0.153925
-0.163592
-0.165491
-0.181332
-0.185947
-0.186814
-0.202591
-0.179685
-0.188204
-0.201356
-0.227164
-0.161207
-0.161252
-0.170454
-0.147373
-0.163392
-0.152153
-0.171854
-0.185366
-0.186525
-0.213111
-0.17167
-0.198002
-0.184967
-0.221606
-0.235928
-0.248267
-0.286353
-0.232829
-0.250712
-0.24644
-0.230095
-0.169683
-0.164489
-0.174164
-0.153429
-0.178988
-0.157953
-0.184898
-0.195319
-0.199148
-0.221238
-0.182952
-0.254332
-0.195419
-0.237906
-0.403883
-0.27993
-0.441954
-0.283292
-0.282394
-0.340459
-0.280918
-0.148367
-0.152911
-0.167716
-0.160016
-0.158712
-0.178399
-0.187406
-0.195684
-0.21363
-0.149681
-0.14496
-0.158836
-0.19463
-0.183949
-0.212751
-0.208639
-0.202397
-0.353821
-0.163373
-0.153851
-0.172989
-0.221176
-0.197369
-0.23303
-0.274822
-0.175233
-0.314688
-0.273664
-0.299719
-0.274146
-0.185841
-0.457372
-0.305658
-0.418242
-0.231921
-0.410696
-0.439308
-0.27297
-0.307116
-0.342315
-0.304447
-0.327817
-0.439274
-0.226659
-0.138053
-0.401542
-0.119286
-0.122369
-0.121516
-0.123343
-0.1171
-0.11661
-0.117407
-0.117469
-0.120274
-0.121853
-0.127727
-0.117552
-0.116482
-0.121182
-0.118805
-0.126653
-0.119018
-0.118704
-0.12025
-0.119344
-0.124538
-0.119679
-0.125823
-0.124066
-0.129795
-0.138799
-0.149108
-0.127283
-0.140417
-0.140278
-0.159536
-0.154853
-0.175363
-0.188247
-0.121339
-0.136693
-0.126294
-0.146466
-0.15176
-0.184925
-0.170946
-0.130292
-0.162163
-0.132563
-0.350187
-0.436779
-0.426608
-0.433378
-0.48669
-0.321029
-0.41564
-0.364481
-0.469923
-0.468893
-0.401681
-0.378672
-0.387109
-0.372179
-0.399439
-0.431723
-0.325729
-0.254196
-0.367039
-0.273893
-0.323948
-0.271298
-0.311541
-0.207351
-0.274804
-0.267426
-0.177479
-0.32027
-0.270073
-0.209107
-0.28275
-0.280108
-0.298962
-0.285981
-0.30016
-0.218827
-0.345835
-0.292573
-0.342992
-0.30475
-0.307126
-0.278068
-0.24841
-0.24211
-0.231777
-0.279188
-0.302727
-0.206339
-0.300917
-0.428418
-0.436345
-0.425517
-0.337981
-0.303583
-0.257804
-0.406532
-0.304766
-0.279658
-0.32601
-0.229615
-0.313163
-0.485113
-0.313858
-0.397831
-0.300828
-0.325218
-0.410914
-0.442984
-0.412157
-0.263778
-0.35186
-0.279246
-0.236331
-0.258856
-0.324248
-0.321839
-0.338599
-0.205167
-0.322291
-0.338306
-0.32311
-0.325237
-0.317989
-0.363952
-0.346048
-0.238313
-0.35699
-0.304453
-0.350727
-0.411672
-0.319285
-0.312437
-0.469657
-0.513456
-0.589914
-0.514242
-0.459425
-0.393369
-0.389795
-0.592901
-0.573352
-0.565038
-0.454768
-0.609663
-0.455118
-0.42199
-0.413697
-0.5719
-0.479587
-0.534763
-0.532063
-0.375113
-0.445108
-0.467069
-0.498844
-0.507361
-0.454205
-0.47757
-0.378139
-0.37158
-0.391387
-0.465276
-0.587824
-0.594706
-0.481056
-0.420452
-0.433561
-0.557932
-0.613763
-0.424714
-0.22229
-0.220405
-0.231265
-0.278456
-0.275004
-0.165496
-0.185411
-0.18952
-0.269137
-0.601668
-0.579887
-0.528312
-0.634194
-0.527808
-0.630107
-0.554689
-0.597447
-0.498626
-0.540065
-0.614255
-0.4643
-0.554391
-0.466284
-0.573452
-0.503256
-0.593451
-0.595727
-0.506447
-0.347562
-0.144085
-0.323344
-0.376379
-0.0992773
-0.441041
-0.311532
-0.305673
-0.242773
-0.243017
-0.295884
-0.329851
-0.422979
-0.230463
-0.27419
-0.172856
-0.2774
-0.330818
-0.376029
-0.0920593
-0.334806
-0.232455
-0.0783253
-0.245821
-0.395939
-0.334931
-0.362024
-0.107934
-0.415687
-0.348296
-0.393099
-0.270017
-0.428235
-0.42037
-0.430573
-0.432087
-0.196746
-0.325577
-0.368127
-0.434531
-0.402979
-0.397124
-0.229133
-0.425217
-0.181724
-0.444161
-0.452778
-0.446601
-0.435335
-0.186645
-0.471402
-0.457102
-0.20341
-0.477986
-0.476035
-0.339756
-0.373469
-0.449406
-0.471756
-0.443567
-0.295161
-0.252672
-0.311283
-0.182747
-0.432299
-0.38867
-0.39041
-0.186387
-0.343823
-0.306832
-0.360324
-0.337487
-0.305862
-0.354261
-0.285729
-0.276345
-0.279305
-0.421035
-0.510828
-0.462672
-0.437915
-0.300028
-0.041528
-0.470022
-0.262166
-0.294516
-0.329865
-0.261756
-0.367329
-0.144764
-0.278738
-0.309226
-0.301111
-0.174166
-0.276511
-0.271649
-0.272792
-0.304046
-0.26889
-0.257047
-0.294916
-0.289513
-0.27051
-0.263368
-0.297757
-0.268305
-0.25409
-0.297035
-0.28538
-0.253652
-0.249161
-0.261852
-0.249545
-0.254728
-0.247153
-0.250212
-0.235211
-0.26657
-0.284254
-0.286813
-0.289771
-0.291316
-0.273779
-0.282244
-0.433656
-0.446811
-0.446821
-0.42607
-0.439085
-0.438546
-0.443054
-0.445544
-0.450975
-0.370821
-0.384691
-0.379855
-0.300864
-0.279478
-0.411053
-0.413018
-0.418096
-0.475485
-0.481334
-0.485626
-0.505655
-0.529894
-0.530818
-0.463037
-0.473813
-0.47648
-0.511943
-0.501047
-0.471477
-0.462727
-0.473021
-0.46029
-0.45177
-0.46278
-0.53162
-0.534849
-0.540335
-0.289268
-0.301213
-0.282698
-0.29049
-0.33307
-0.323249
-0.329431
-0.286301
-0.269036
-0.27702
-0.300734
-0.284414
-0.291687
-0.335742
-0.324972
-0.331963
-0.440935
-0.440399
-0.447577
-0.381449
-0.391334
-0.39064
-0.339118
-0.329314
-0.329892
-0.331197
-0.31542
-0.325686
-0.333824
-0.330864
-0.437424
-0.453102
-0.435021
-0.451755
-0.450428
-0.370495
-0.371375
-0.348616
-0.364063
-0.358972
-0.370737
-0.360531
-0.367415
-0.353237
-0.35154
-0.354098
-0.40956
-0.420815
-0.421892
-0.372418
-0.398437
-0.391558
-0.368736
-0.379962
-0.377256
-0.379495
-0.39113
-0.389142
-0.346094
-0.35852
-0.357868
-0.30653
-0.291502
-0.295008
-0.331345
-0.328064
-0.329573
-0.333442
-0.329127
-0.335315
-0.301587
-0.284732
-0.293102
-0.325592
-0.324433
-0.325643
-0.298478
-0.320399
-0.313531
-0.343088
-0.346748
-0.346851
-0.346227
-0.347683
-0.349834
-0.418613
-0.421831
-0.426268
-0.372711
-0.35199
-0.36778
-0.387361
-0.359561
-0.37692
-0.482479
-0.477876
-0.486067
-0.583336
-0.595833
-0.601578
-0.566663
-0.583824
-0.586432
-0.578008
-0.583098
-0.590431
-0.484742
-0.484119
-0.490842
-0.511658
-0.534296
-0.535346
-0.468415
-0.471821
-0.477842
-0.576433
-0.595862
-0.596121
-0.589955
-0.588494
-0.598796
-0.578075
-0.596989
-0.597293
-0.608872
-0.606166
-0.616346
-0.586008
-0.590587
-0.596525
-0.480791
-0.463353
-0.477647
-0.545307
-0.579605
-0.571304
-0.592606
-0.586693
-0.598433
-0.617308
-0.624887
-0.624908
-0.547478
-0.627944
-0.614662
-0.457482
-0.449775
-0.460769
-0.548979
-0.550584
-0.555697
-0.619691
-0.623152
-0.632014
-0.596552
-0.610758
-0.614739
-0.715276
-0.747065
-0.758548
-0.620834
-0.619368
-0.631287
-0.616755
-0.62853
-0.632627
-0.631073
-0.647319
-0.653587
-0.618622
-0.610495
-0.625397
-0.626283
-0.640308
-0.638772
-0.650519
-0.615993
-0.633071
-0.637286
-0.619568
-0.633589
-0.638837
-0.639184
-0.632552
-0.645626
-0.648734
-0.641916
-0.657302
-0.254961
-0.517742
-0.232513
-0.276189
-0.292138
-0.334764
-0.233145
-0.276951
-0.271839
-0.335072
-0.226398
-0.289226
-0.30458
-0.241794
-0.328821
-0.292995
-0.3768
-0.493472
-0.48271
-0.334033
-0.422647
-0.433794
-0.29194
-0.202878
-0.232402
-0.689076
-0.688889
-0.654493
-0.686088
-0.57173
-0.492607
-0.614151
-0.667393
-0.602884
-0.591701
-0.560669
-0.599911
-0.502999
-0.64333
-0.51532
-0.521216
-0.509981
-0.473802
-0.53574
-0.420008
-0.686636
-0.69789
-0.713798
-0.697478
-0.713816
-0.706632
-0.707218
-0.694981
-0.708075
-0.694808
-0.0550827
-0.00869863
-0.00698428
0.0244287
0.0280711
-0.0308249
-0.0166976
-0.0126683
0.0129445
0.030683
-0.0344876
-0.0267568
-0.0029039
0.0929299
0.0211631
-0.0525679
-0.0498093
-0.0411387
-0.0240682
-0.00540671
-0.07747
-0.075924
-0.0701031
-0.054551
-0.0254656
-0.104945
-0.105331
-0.10617
-0.100473
-0.0846963
-0.131575
-0.134871
-0.149465
-0.178032
-0.197506
-0.150599
-0.156647
-0.185818
-0.262342
-0.315893
-0.159963
-0.170901
-0.213117
-0.293381
-0.167231
-0.142761
-0.155453
-0.202995
-0.338966
-0.242656
-0.0572594
-0.0367947
-0.0345694
0.00668136
0.0065617
0.00762989
0.00763361
-0.031266
-0.0303651
-0.029604
-0.0213491
-0.0208411
-0.0200243
-0.0161079
-0.0362361
-0.0354371
-0.0375608
-0.0436473
-0.0438398
-0.0434173
-0.043031
-0.0528176
-0.0529702
-0.052653
-0.0654852
-0.0659245
-0.0652446
-0.0657854
-0.0774803
-0.0776914
-0.0772663
-0.0913487
-0.0919952
-0.0913676
-0.0920833
-0.105019
-0.10536
-0.105261
-0.118961
-0.119451
-0.119539
-0.120516
-0.131797
-0.132797
-0.133075
-0.142495
-0.143825
-0.143772
-0.145945
-0.150465
-0.153001
-0.152565
-0.15377
-0.15561
-0.15671
-0.159848
-0.159057
-0.160512
-0.161642
-0.148524
-0.15054
-0.152475
-0.155338
-0.143308
-0.144731
-0.148157
-0.031438
-0.0374397
-0.0424827
-0.0419095
-0.042239
-0.0406251
-0.0424583
-0.00942801
-0.0396596
-0.0495588
-0.0365783
-0.039925
-0.0270552
-0.0324393
0.0575097
-0.0584455
-0.102193
-0.0445168
-0.0392254
0.013804
0.0156004
0.00926067
-0.00963199
-0.0452117
0.0147209
0.00240862
0.0124066
0.0161205
-0.050711
-0.0501371
-0.0483405
-0.0625717
-0.0635675
-0.0609881
-0.0628223
-0.0414703
-0.0400343
-0.0382832
-0.0506982
-0.0536126
-0.0465687
-0.0512805
-0.020423
-0.0144995
-0.0145757
-0.0266409
-0.0316646
-0.0234682
-0.0211701
-0.00876499
-0.00964201
-0.0111701
-0.0110471
-0.0116171
-0.0123017
-0.0106086
-0.076143
-0.0751539
-0.0740109
-0.0899794
-0.0910543
-0.0900301
-0.0915413
-0.0701502
-0.0647394
-0.0626316
-0.0853974
-0.0869429
-0.0837323
-0.0852438
-0.0528834
-0.038168
-0.0367417
-0.0728442
-0.0729357
-0.0654253
-0.0664737
-0.0337213
-0.029003
-0.0299597
-0.0602713
-0.0591209
-0.0565109
-0.0600763
-0.105951
-0.106806
-0.106364
-0.12039
-0.122046
-0.125102
-0.127356
-0.107342
-0.106773
-0.104791
-0.12725
-0.130159
-0.13689
-0.141116
-0.102164
-0.0975342
-0.0986614
-0.138981
-0.143289
-0.158652
-0.16116
-0.0922788
-0.0887799
-0.089953
-0.151921
-0.145843
-0.141751
-0.156667
-0.136211
-0.142212
-0.143545
-0.147539
-0.150493
-0.157824
-0.162838
-0.153554
-0.163906
-0.168644
-0.16836
-0.175798
-0.193461
-0.204621
-0.189429
-0.204593
-0.21879
-0.210521
-0.233523
-0.266667
-0.286491
-0.20405
-0.190071
-0.201284
-0.255824
-0.268939
-0.256657
-0.262709
-0.158279
-0.170446
-0.170904
-0.162679
-0.168486
-0.18371
-0.190389
-0.191065
-0.215937
-0.219654
-0.196925
-0.215197
-0.259465
-0.266895
-0.272754
-0.313129
-0.300852
-0.265535
-0.2777
-0.382969
-0.374532
-0.303074
-0.29577
-0.28971
-0.35336
-0.335703
-0.301622
-0.293298
-0.166489
-0.174663
-0.178645
-0.156777
-0.163394
-0.180078
-0.187012
-0.201321
-0.195233
-0.225063
-0.1873
-0.207071
-0.259051
-0.255886
-0.28091
-0.424606
-0.436106
-0.287648
-0.361171
-0.294083
-0.316951
-0.295275
-0.275918
-0.303642
-0.299186
-0.158718
-0.170888
-0.187236
-0.20227
-0.230409
-0.238073
-0.29641
-0.322546
-0.308766
-0.18989
-0.340841
-0.306951
-0.303121
-0.319084
-0.304575
-0.213897
-0.280047
-0.277911
-0.256746
-0.35373
-0.314754
-0.340231
-0.295531
-0.299836
-0.268245
-0.243435
-0.324805
-0.287959
-0.313772
-0.288928
-0.262647
-0.268354
-0.295774
-0.285589
-0.262061
-0.277626
-0.285806
-0.250961
-0.294783
-0.20217
-0.29372
-0.279299
-0.241014
-0.235634
-0.274006
-0.242806
-0.223466
-0.291302
-0.256016
-0.209741
-0.207742
-0.247011
-0.244326
-0.250754
-0.214689
-0.436068
-0.286763
-0.340426
-0.359775
-0.328285
-0.34256
-0.476838
-0.448701
-0.314924
-0.366641
-0.244339
-0.418358
-0.441634
-0.26269
-0.153206
-0.445262
-0.340939
-0.123116
-0.124562
-0.128157
-0.130626
-0.134257
-0.138893
-0.165804
-0.494099
-0.330711
-0.37446
-0.433988
-0.479813
-0.41534
-0.397573
-0.435772
-0.416025
-0.411229
-0.460911
-0.474899
-0.279323
-0.317746
-0.337569
-0.256555
-0.428553
-0.290905
-0.283165
-0.26867
-0.318352
-0.388369
-0.279554
-0.286229
-0.333625
-0.326804
-0.306089
-0.309678
-0.339845
-0.229334
-0.277769
-0.2676
-0.301446
-0.175926
-0.333261
-0.295642
-0.244659
-0.318077
-0.330612
-0.311826
-0.314633
-0.324555
-0.261596
-0.278566
-0.281817
-0.27954
-0.244179
-0.245015
-0.347494
-0.286508
-0.274838
-0.285317
-0.264156
-0.304252
-0.305271
-0.323668
-0.23411
-0.317171
-0.327151
-0.286024
-0.291516
-0.273417
-0.246254
-0.269139
-0.250112
-0.261331
-0.263138
-0.255141
-0.284439
-0.245168
-0.264685
-0.248883
-0.252586
-0.258563
-0.262496
-0.292924
-0.280032
-0.25463
-0.264791
-0.271547
-0.249329
-0.261326
-0.265982
-0.251195
-0.234887
-0.246125
-0.256834
-0.246405
-0.246413
-0.277186
-0.273063
-0.280835
-0.273159
-0.248311
-0.281134
-0.27488
-0.288208
-0.288563
-0.277674
-0.288595
-0.248503
-0.301242
-0.280902
-0.287364
-0.264064
-0.282246
-0.240541
-0.292323
-0.262118
-0.289186
-0.263072
-0.284178
-0.27793
-0.28432
-0.315216
-0.313356
-0.244503
-0.313594
-0.309604
-0.31427
-0.320349
-0.265842
-0.279682
-0.296399
-0.302204
-0.29642
-0.243387
-0.291255
-0.295567
-0.304098
-0.291474
-0.288749
-0.281269
-0.277234
-0.25044
-0.248253
-0.255524
-0.261463
-0.264092
-0.269448
-0.286973
-0.215545
-0.274904
-0.289184
-0.283845
-0.26721
-0.247115
-0.252832
-0.273404
-0.266048
-0.272861
-0.224296
-0.277283
-0.274672
-0.279961
-0.272942
-0.24817
-0.245018
-0.245699
-0.252556
-0.243236
-0.224039
-0.244537
-0.217408
-0.460721
-0.485986
-0.456033
-0.358234
-0.322054
-0.278588
-0.425524
-0.323019
-0.335935
-0.298333
-0.343866
-0.255832
-0.332479
-0.502344
-0.43457
-0.461885
-0.325403
-0.318848
-0.394527
-0.307796
-0.353165
-0.471837
-0.443272
-0.29161
-0.311939
-0.37913
-0.352314
-0.371496
-0.239154
-0.355861
-0.36533
-0.350501
-0.358547
-0.266242
-0.289234
-0.349206
-0.344729
-0.39535
-0.266754
-0.366828
-0.382391
-0.375771
-0.324667
-0.44778
-0.356587
-0.352001
-0.316082
-0.446012
-0.31026
-0.466538
-0.586629
-0.524919
-0.402058
-0.399836
-0.501576
-0.527457
-0.528685
-0.477431
-0.50199
-0.425708
-0.404148
-0.415221
-0.493489
-0.629724
-0.623504
-0.512331
-0.482742
-0.490734
-0.420235
-0.621056
-0.591969
-0.580275
-0.465853
-0.46536
-0.619757
-0.426663
-0.426249
-0.469522
-0.588825
-0.485451
-0.54758
-0.545748
-0.468814
-0.585805
-0.635526
-0.464393
-0.171235
-0.189702
-0.202091
-0.272268
-0.497506
-0.601469
-0.489404
-0.622402
-0.604606
-0.49868
-0.545683
-0.675026
-0.558948
-0.532106
-0.630914
-0.627917
-0.541274
-0.621358
-0.608729
-0.533656
-0.618916
-0.297997
-0.218531
-0.260776
-0.259357
-0.278865
-0.272619
-0.276662
-0.364637
-0.164169
-0.365083
-0.357623
-0.312946
-0.331172
-0.386681
-0.358978
-0.347914
-0.31123
-0.315163
-0.329618
-0.300924
-0.287359
-0.290291
-0.315086
-0.321961
-0.340217
-0.232763
-0.420221
-0.293372
-0.163321
-0.289494
-0.346339
-0.38881
-0.126285
-0.347422
-0.273358
-0.10323
-0.27712
-0.409692
-0.304282
-0.271712
-0.30501
-0.284835
-0.272504
-0.283869
-0.298171
-0.309348
-0.284677
-0.278623
-0.318831
-0.296222
-0.306538
-0.283497
-0.302155
-0.242267
-0.275506
-0.259103
-0.26774
-0.263633
-0.261208
-0.287793
-0.258278
-0.240722
-0.265975
-0.254345
-0.262607
-0.266012
-0.282651
-0.294574
-0.23897
-0.263314
-0.303048
-0.286183
-0.275042
-0.278796
-0.297631
-0.225037
-0.252387
-0.287769
-0.284134
-0.262621
-0.453378
-0.450993
-0.422317
-0.264848
-0.448744
-0.211909
-0.468903
-0.471257
-0.472779
-0.482495
-0.222712
-0.50107
-0.485707
-0.243108
-0.348889
-0.383592
-0.128456
-0.425102
-0.365561
-0.421471
-0.287485
-0.445904
-0.43077
-0.450987
-0.430358
-0.209063
-0.335276
-0.385361
-0.502456
-0.503585
-0.357391
-0.472147
-0.394747
-0.49301
-0.456703
-0.284034
-0.326754
-0.317296
-0.274229
-0.309573
-0.322185
-0.203554
-0.267972
-0.305355
-0.28905
-0.406936
-0.474081
-0.381315
-0.286006
-0.286835
-0.294032
-0.425756
-0.535964
-0.455423
-0.481982
-0.395218
-0.289535
-0.314358
-0.324544
-0.291268
-0.325197
-0.36719
-0.351022
-0.313314
-0.295058
-0.294766
-0.301151
-0.306204
-0.343116
-0.309629
-0.0360545
-0.465511
-0.279554
-0.269671
-0.351631
-0.258351
-0.365841
-0.150392
-0.322504
-0.289248
-0.192444
-0.315915
-0.296641
-0.25464
-0.269212
-0.280271
-0.268059
-0.265806
-0.274096
-0.263253
-0.239314
-0.273095
-0.283021
-0.296833
-0.316384
-0.314694
-0.316818
-0.325285
-0.319113
-0.322908
-0.282541
-0.279771
-0.282515
-0.282988
-0.286796
-0.304632
-0.297241
-0.301248
-0.262637
-0.256052
-0.259078
-0.327073
-0.309842
-0.318303
-0.291554
-0.297213
-0.294808
-0.332862
-0.335908
-0.335494
-0.273105
-0.279957
-0.276894
-0.310351
-0.317504
-0.31643
-0.309702
-0.306797
-0.310477
-0.31873
-0.315323
-0.316041
-0.291261
-0.286746
-0.291241
-0.291419
-0.287048
-0.287858
-0.238319
-0.243826
-0.235704
-0.287574
-0.289485
-0.287687
-0.316335
-0.3112
-0.315074
-0.277703
-0.281209
-0.280868
-0.306083
-0.297858
-0.301893
-0.256214
-0.258226
-0.252253
-0.291775
-0.284333
-0.28728
-0.285946
-0.286747
-0.284662
-0.242519
-0.243346
-0.237445
-0.265562
-0.258149
-0.259236
-0.238797
-0.237342
-0.233069
-0.2483
-0.244774
-0.243669
-0.27363
-0.256834
-0.260362
-0.259357
-0.25266
-0.25135
-0.236762
-0.220568
-0.221896
-0.224924
-0.215556
-0.214287
-0.340031
-0.344254
-0.343077
-0.325714
-0.343223
-0.336696
-0.449062
-0.466106
-0.46491
-0.451051
-0.461776
-0.46112
-0.378897
-0.402469
-0.394181
-0.441441
-0.452302
-0.454138
-0.323221
-0.304035
-0.31397
-0.45442
-0.456791
-0.461872
-0.31737
-0.31987
-0.320247
-0.301474
-0.318022
-0.309374
-0.288839
-0.489267
-0.49084
-0.497249
-0.516953
-0.501944
-0.515051
-0.495523
-0.492226
-0.501585
-0.579107
-0.582172
-0.587807
-0.512723
-0.329468
-0.317248
-0.320714
-0.296807
-0.306826
-0.30357
-0.309057
-0.311799
-0.312102
-0.335357
-0.320187
-0.323268
-0.299915
-0.309858
-0.306983
-0.293027
-0.304446
-0.30296
-0.338249
-0.337075
-0.33904
-0.336389
-0.335341
-0.337232
-0.294523
-0.291036
-0.290482
-0.334469
-0.329572
-0.334983
-0.328407
-0.326057
-0.330113
-0.3111
-0.309807
-0.311727
-0.320834
-0.314103
-0.317858
-0.283027
-0.279247
-0.282351
-0.282092
-0.285948
-0.307965
-0.29903
-0.303678
-0.30461
-0.306696
-0.305477
-0.311475
-0.301776
-0.306569
-0.300478
-0.29295
-0.296887
-0.308315
-0.311282
-0.309859
-0.284666
-0.268841
-0.275944
-0.261642
-0.262266
-0.260086
-0.279199
-0.26483
-0.271003
-0.261548
-0.255101
-0.257814
-0.260476
-0.261276
-0.259045
-0.332305
-0.315514
-0.322383
-0.362492
-0.353922
-0.360109
-0.334934
-0.320363
-0.327023
-0.318302
-0.301506
-0.309431
-0.369643
-0.35975
-0.366492
-0.283838
-0.290311
-0.287521
-0.296513
-0.317002
-0.311255
-0.289414
-0.289174
-0.288824
-0.333703
-0.337421
-0.336784
-0.278947
-0.28625
-0.283049
-0.284647
-0.30286
-0.298172
-0.28356
-0.283261
-0.282846
-0.318504
-0.321457
-0.320989
-0.372638
-0.373176
-0.374574
-0.454501
-0.455665
-0.456203
-0.456031
-0.452183
-0.454994
-0.342749
-0.335929
-0.341679
-0.336555
-0.335809
-0.339728
-0.3575
-0.371955
-0.368018
-0.358739
-0.371481
-0.368472
-0.309162
-0.30606
-0.308722
-0.322722
-0.314424
-0.318637
-0.285432
-0.281217
-0.284453
-0.295326
-0.286911
-0.291006
-0.244141
-0.247617
-0.240872
-0.234504
-0.234042
-0.228399
-0.24389
-0.240694
-0.237274
-0.246678
-0.24769
-0.24163
-0.242408
-0.237657
-0.233507
-0.224907
-0.226279
-0.219646
-0.228652
-0.227728
-0.221692
-0.263783
-0.266502
-0.264447
-0.289726
-0.282665
-0.284994
-0.281187
-0.27647
-0.280058
-0.27194
-0.277022
-0.274615
-0.26637
-0.27013
-0.267576
-0.292024
-0.291623
-0.290585
-0.285691
-0.291982
-0.288393
-0.284921
-0.28826
-0.2879
-0.288631
-0.295678
-0.294705
-0.275081
-0.281001
-0.279099
-0.269878
-0.279196
-0.274733
-0.293453
-0.288259
-0.289869
-0.283722
-0.288252
-0.287301
-0.267257
-0.265661
-0.266406
-0.286331
-0.280856
-0.282994
-0.274544
-0.27416
-0.275894
-0.298592
-0.296132
-0.300138
-0.273237
-0.279129
-0.2754
-0.295696
-0.292348
-0.292397
-0.292537
-0.29215
-0.29516
-0.272225
-0.273644
-0.269974
-0.268238
-0.275322
-0.271826
-0.303009
-0.307536
-0.308651
-0.308377
-0.31182
-0.311775
-0.302757
-0.295554
-0.299324
-0.309642
-0.303802
-0.304154
-0.295156
-0.298408
-0.297329
-0.295381
-0.289945
-0.292674
-0.289883
-0.290555
-0.28948
-0.278505
-0.288485
-0.287727
-0.272131
-0.272121
-0.269754
-0.278998
-0.281451
-0.278905
-0.288577
-0.284823
-0.285169
-0.263113
-0.256028
-0.257541
-0.247212
-0.247851
-0.245722
-0.264684
-0.258824
-0.26053
-0.277499
-0.271129
-0.272645
-0.243665
-0.244769
-0.240528
-0.247478
-0.254332
-0.250313
-0.270612
-0.270211
-0.272093
-0.264261
-0.261401
-0.2617
-0.285688
-0.27288
-0.27883
-0.294473
-0.286332