/*--------------------------------*- C++ -*----------------------------------*\
| =========                 |                                                 |
| \\      /  F ield         | OpenFOAM: The Open Source CFD Toolbox           |
|  \\    /   O peration     | Version:  2.2.1                                 |
|   \\  /    A nd           | Web:      www.OpenFOAM.org                      |
|    \\/     M anipulation  |                                                 |
\*---------------------------------------------------------------------------*/
FoamFile
{
    version     2.0;
    format      ascii;
    class       surfaceScalarField;
    location    "14.66426";
    object      phi;
}
// * * * * * * * * * * * * * * * * * * * * * * * * * * * * * * * * * * * * * //

dimensions      [1 0 -1 0 0 0 0];

internalField   nonuniform List<scalar> 
75547
(
3.4223e-09
4.01282e-09
-1.08983e-08
-3.78574e-07
-6.8637e-09
-1.9393e-06
1.21333e-08
1.03235e-08
6.07653e-09
2.59972e-09
3.636e-09
2.90505e-09
1.85573e-09
-2.56451e-09
1.94504e-09
4.70971e-09
-9.92956e-09
1.4583e-09
-3.78202e-07
6.776e-09
-2.54573e-09
-1.88654e-06
7.34081e-09
8.38961e-09
3.88912e-09
-1.06637e-09
6.21365e-09
7.59114e-09
2.68848e-09
-2.06607e-09
6.92827e-09
-1.89552e-06
1.71256e-08
-2.35457e-09
-8.18086e-09
-1.94134e-06
5.92992e-09
4.9277e-09
3.53537e-09
-6.68227e-10
1.21516e-08
1.06894e-08
5.77236e-09
3.10102e-09
2.02384e-08
1.10147e-09
-1.897e-06
6.82492e-10
-1.835e-06
3.66972e-08
3.59947e-09
-1.08262e-08
-2.59774e-10
-2.97296e-07
-5.03079e-09
-1.87776e-06
9.07849e-09
6.66864e-09
3.34834e-09
2.40102e-09
3.57841e-09
1.02084e-08
-1.85823e-06
5.1029e-09
-1.45405e-06
-1.12947e-08
6.79219e-09
3.74323e-07
9.06331e-10
2.6809e-10
-4.04707e-09
-3.7145e-07
1.36557e-08
-4.87637e-07
3.0835e-09
3.06217e-09
-6.3669e-10
-3.13834e-09
1.1347e-09
1.50793e-09
-1.42545e-09
-4.89456e-09
-4.90415e-07
-4.86024e-07
-4.87477e-07
-9.76717e-11
3.74059e-07
1.97024e-09
-3.07154e-09
-1.62118e-09
-3.71337e-07
1.51028e-08
3.74523e-09
-4.64694e-07
3.7101e-09
4.89372e-09
-1.33088e-09
-6.38334e-09
2.26142e-09
3.78593e-09
-2.92923e-09
-7.65289e-09
-4.78217e-07
-4.78725e-07
-4.80107e-07
3.77866e-08
-4.81954e-07
-4.82419e-07
-4.79185e-07
-4.7787e-07
1.68763e-08
1.45991e-08
-1.08384e-09
-4.89703e-07
2.22047e-09
3.0361e-09
-5.27428e-10
-3.35997e-09
2.86907e-09
3.669e-09
-1.17499e-09
-3.30842e-09
-4.87051e-07
-4.92123e-07
-4.89406e-07
4.1491e-08
1.99642e-09
-4.81989e-07
-4.79179e-07
-4.82955e-07
-4.78018e-07
3.32644e-08
-4.70922e-07
-4.66596e-07
-4.66793e-07
-4.43524e-07
5.8844e-08
2.92063e-07
1.04415e-09
-5.52882e-09
7.76105e-11
-2.87656e-07
3.82069e-08
-4.83344e-07
5.5598e-09
4.7293e-09
-1.74717e-09
-1.88776e-09
-4.84502e-07
-4.79453e-07
-4.78902e-07
2.49437e-09
5.44516e-08
-4.77687e-07
-4.68909e-07
-4.72128e-07
-4.5947e-07
5.71347e-09
-4.25936e-07
-3.34611e-07
-3.94356e-07
-2.1467e-07
-1.28696e-10
3.36964e-09
3.70879e-07
5.3883e-10
6.04775e-10
-1.58493e-09
-3.70438e-07
2.19187e-09
-2.85025e-10
1.49873e-10
-4.56713e-10
-4.89237e-07
3.70907e-07
1.63922e-09
-5.8987e-10
-1.3043e-09
-3.70652e-07
7.50471e-10
-6.88097e-10
1.37635e-09
-5.61917e-10
-4.65571e-07
-1.24751e-09
-2.07298e-09
1.95564e-09
8.18276e-10
-4.81408e-07
1.18618e-09
1.55533e-09
3.45773e-10
-1.14136e-09
-4.91649e-07
3.84241e-10
-2.51636e-09
3.12871e-09
-1.15274e-09
-4.81833e-07
-1.39514e-09
-4.70254e-09
6.34575e-09
8.83872e-10
-4.72053e-07
2.85685e-07
1.01529e-09
-2.50404e-09
-4.38254e-11
-2.84152e-07
-2.03192e-12
1.03988e-09
3.81948e-10
-8.34351e-11
-4.8468e-07
3.65054e-09
-2.5319e-09
3.51322e-09
-1.37142e-09
-4.80947e-07
4.2607e-09
-6.78006e-09
1.99518e-08
6.55581e-10
-4.44024e-07
3.714e-07
-9.49426e-10
2.56603e-09
9.81666e-10
-3.73998e-07
1.13565e-09
-2.7205e-09
4.93324e-07
2.69512e-09
1.55273e-09
-4.95987e-07
3.71516e-07
2.60805e-10
1.4151e-09
4.63745e-10
-3.73656e-07
-1.86314e-09
-3.16912e-09
4.67621e-07
4.47973e-09
2.66783e-09
-4.69736e-07
4.83243e-07
-3.7366e-09
-5.22141e-09
4.8388e-09
5.81276e-09
-4.84937e-07
-8.08594e-10
2.18788e-10
4.95168e-07
2.56258e-09
5.14937e-10
-4.97656e-07
4.84512e-07
-2.79589e-09
-5.12534e-09
7.60698e-09
2.26552e-09
-4.86464e-07
4.73596e-07
-6.40418e-09
-9.39983e-09
1.03426e-08
7.37482e-09
-4.75509e-07
2.83106e-07
4.42891e-10
2.15347e-09
8.80655e-12
-2.85711e-07
-3.75394e-09
4.87077e-07
-6.64595e-11
4.9747e-09
3.47284e-10
-4.88579e-07
4.84496e-07
-2.53844e-10
-5.92873e-09
8.89281e-09
-1.55875e-10
-4.87051e-07
4.37271e-07
-3.8713e-09
-1.20418e-08
2.20192e-08
1.59701e-09
-4.44974e-07
3.76385e-07
-1.36449e-09
2.95722e-09
4.44884e-10
-3.78423e-07
4.66068e-10
-3.05391e-09
4.98855e-07
2.9367e-09
2.45354e-10
-4.9945e-07
3.75761e-07
-8.21026e-11
2.52458e-09
4.76411e-10
-3.7868e-07
-1.94856e-09
-3.42539e-09
4.72612e-07
4.97102e-09
3.49099e-09
-4.757e-07
4.87722e-07
-3.63216e-09
-6.02139e-09
6.04844e-09
7.81966e-09
-4.91936e-07
-6.86888e-10
-1.69283e-09
4.99262e-07
2.73487e-09
4.37457e-10
-5.00055e-07
4.8923e-07
-3.89016e-09
-5.10133e-09
9.35438e-09
4.02082e-09
-4.93614e-07
4.76951e-07
-1.0365e-08
-1.28788e-08
1.42227e-08
1.25265e-08
-4.80457e-07
2.88791e-07
-5.17371e-10
3.04098e-09
3.11956e-10
-2.91627e-07
-5.0376e-09
4.91023e-07
7.9634e-11
7.03743e-09
4.64683e-10
-4.93567e-07
4.86248e-07
-2.84715e-09
-9.62355e-09
1.39706e-08
1.40025e-09
-4.89148e-07
4.44413e-07
-1.07686e-08
-1.96523e-08
2.70174e-08
5.51454e-09
-4.46524e-07
3.81625e-07
-1.07518e-09
2.00083e-09
1.49887e-09
-3.84049e-07
-1.9849e-09
-2.86963e-09
5.00724e-07
3.12815e-09
2.7116e-09
-5.01709e-07
3.81965e-07
-3.26554e-11
2.31421e-09
2.4648e-10
-3.84493e-07
-1.44391e-09
-3.3215e-09
4.7694e-07
4.33067e-09
2.31054e-09
-4.78816e-07
4.96001e-07
-2.60122e-09
-5.40469e-09
5.43927e-09
6.14055e-09
-4.99575e-07
-1.50056e-09
-3.54346e-09
5.01984e-07
3.78164e-09
1.35362e-09
-5.02076e-07
4.96862e-07
-2.83613e-09
-5.25421e-09
8.36544e-09
2.51604e-09
-4.99653e-07
4.83974e-07
-1.10566e-08
-1.30684e-08
1.5836e-08
1.40992e-08
-4.89784e-07
2.9516e-07
-1.15225e-09
5.19012e-09
3.42994e-10
-2.99541e-07
-5.98764e-09
4.9497e-07
-8.54463e-10
7.51929e-09
-2.16743e-10
-4.95431e-07
4.91952e-07
-1.85458e-09
-1.03768e-08
1.51923e-08
6.64254e-10
-4.95577e-07
4.4957e-07
-1.32947e-08
-2.07124e-08
3.00931e-08
7.27152e-09
-4.52928e-07
3.86764e-07
-5.17874e-10
1.77835e-09
1.46698e-09
-3.89492e-07
-1.29518e-09
-2.32979e-09
5.02913e-07
2.95828e-09
2.23562e-09
-5.04482e-07
3.8571e-07
9.50288e-10
1.45358e-09
-6.1774e-11
-3.88052e-07
-3.46798e-10
-1.48102e-09
4.81264e-07
3.02228e-09
8.1231e-10
-4.8327e-07
5.00202e-07
-3.74576e-09
-4.70055e-09
4.58593e-09
5.27762e-09
-5.0162e-07
-1.04882e-09
-2.3706e-09
5.02535e-07
3.49062e-09
1.21717e-09
-5.03823e-07
5.01449e-07
-2.65553e-09
-4.55514e-09
6.8225e-09
2.07846e-09
-5.0314e-07
4.97233e-07
-8.38723e-09
-1.07489e-08
1.45942e-08
1.12276e-08
-5.03919e-07
3.02621e-07
1.47227e-12
1.29503e-09
2.94906e-10
-3.04213e-07
-1.7469e-09
4.96779e-07
-5.62552e-10
3.70842e-09
8.43174e-10
-4.99021e-07
5.00031e-07
3.9547e-10
-6.15971e-09
9.94345e-09
-6.63347e-10
-5.03547e-07
4.57327e-07
-1.05279e-08
-1.73477e-08
2.65626e-08
6.94454e-09
-4.62958e-07
3.8963e-07
-4.38956e-10
1.12259e-09
-9.37701e-10
-3.89376e-07
-1.84325e-09
-2.13597e-09
5.04754e-07
2.37586e-09
9.28629e-10
-5.04079e-07
3.90221e-07
8.07256e-10
-2.01805e-10
-1.18612e-09
-3.8964e-07
1.54028e-09
3.44574e-10
4.84081e-07
6.26716e-10
-1.14521e-09
-4.85447e-07
5.03839e-07
-4.24128e-10
-4.03044e-10
1.62147e-09
1.94738e-09
-5.06581e-07
-2.7823e-10
-1.0177e-09
5.05589e-07
4.08883e-10
-4.40529e-10
-5.04261e-07
5.05596e-07
1.57889e-09
-5.21472e-10
2.54422e-09
-5.10164e-10
-5.08687e-07
5.1054e-07
-1.65905e-09
-4.88634e-09
7.61017e-09
3.28668e-09
-5.14891e-07
3.04577e-07
1.16289e-10
-1.75958e-10
1.77239e-10
-3.04695e-07
5.36645e-10
5.00357e-07
4.24422e-11
-8.13517e-10
1.7404e-10
-5.00297e-07
5.06599e-07
1.49912e-09
1.51001e-10
1.38675e-09
-1.78994e-09
-5.07846e-07
4.70759e-07
-3.25149e-09
-3.21533e-09
1.18004e-08
1.41638e-09
-4.77509e-07
3.89542e-07
-6.76255e-10
1.49549e-09
1.61409e-10
-3.90522e-07
-1.10152e-10
-2.00509e-09
5.04808e-07
1.96111e-09
1.9014e-09
-5.06555e-07
3.89634e-07
4.56698e-10
1.06871e-09
-6.99897e-10
-3.90459e-07
-1.13914e-09
-2.42613e-09
4.87363e-07
2.446e-09
6.24805e-10
-4.86869e-07
5.07191e-07
-7.22086e-10
-2.82882e-09
7.79377e-10
-5.19058e-10
-5.039e-07
5.88443e-11
-7.57056e-10
5.04828e-07
2.68773e-09
-2.34249e-10
-5.06584e-07
5.09107e-07
-5.19103e-11
-1.60397e-09
-1.14493e-09
-2.3468e-09
-5.03959e-07
5.14732e-07
1.70196e-09
1.99941e-09
-1.74191e-09
-5.25445e-09
-5.11437e-07
3.04689e-07
1.255e-10
-1.01777e-10
6.97921e-11
-3.04782e-07
-7.09818e-10
5.00617e-07
3.27784e-10
2.45396e-11
-1.90006e-10
-5.00069e-07
5.07053e-07
2.53071e-09
3.48512e-09
-8.46015e-09
-1.05755e-09
-5.03551e-07
4.80256e-07
3.58601e-09
1.5247e-08
-1.31006e-09
-4.92518e-09
-3.43295e-09
-1.39646e-09
-3.63662e-09
-1.13039e-07
-1.24603e-07
-1.22389e-07
-1.24356e-07
3.91723e-07
-5.73942e-10
1.27253e-09
-7.93785e-10
-3.91628e-07
8.23982e-10
-1.01564e-09
5.09579e-07
8.36358e-10
-9.36305e-10
-5.09288e-07
3.91712e-07
2.06294e-10
-1.94557e-10
-1.0646e-10
-3.91617e-07
1.76135e-10
-3.17286e-10
4.86343e-07
-2.07833e-10
-9.14779e-10
-4.8508e-07
4.9926e-07
3.86819e-09
1.22441e-09
-2.71444e-09
-8.41684e-09
-4.93222e-07
4.15358e-10
2.88557e-10
5.09484e-07
-3.32641e-11
-2.41356e-10
-5.09914e-07
4.99794e-07
2.90346e-09
2.05303e-09
-5.36587e-09
-5.33246e-09
-4.94053e-07
5.06092e-07
1.08304e-08
6.54765e-09
-1.33627e-09
-2.66694e-09
-5.03032e-07
-2.91741e-09
-1.85431e-09
-2.44232e-09
-3.73301e-09
-2.35571e-09
-3.13185e-09
3.04897e-07
8.55e-11
-5.38249e-10
-2.10314e-10
-3.04234e-07
1.30088e-09
4.97438e-07
1.641e-10
-3.77383e-09
-2.13443e-09
-4.92995e-07
4.96154e-07
5.59249e-09
9.11679e-09
-1.53709e-08
-5.37875e-09
-4.90114e-07
6.52314e-09
-8.60559e-10
-1.28661e-07
2.58675e-09
-7.73675e-09
1.28149e-07
-2.29516e-07
-3.33125e-09
-1.02178e-08
-1.73942e-09
-4.01578e-09
-2.23761e-07
-7.35845e-09
-1.83592e-07
-2.15606e-09
4.46059e-10
-4.03839e-07
-5.37465e-07
-2.09089e-09
-2.67982e-09
-1.79752e-07
-1.1605e-09
-1.49594e-09
-3.98006e-07
-5.38476e-07
-5.65225e-10
-5.55024e-09
-1.82499e-07
-4.41136e-09
-1.82473e-07
-4.31673e-07
-5.46641e-09
-6.97269e-09
-3.18759e-09
-1.02666e-09
-1.78285e-07
-2.03409e-09
-2.19393e-09
-1.78245e-07
-2.57049e-09
-4.0142e-09
-4.3031e-07
-9.72196e-09
-5.54937e-07
-2.61789e-09
-4.40658e-07
-4.66144e-07
6.69841e-10
-5.94786e-09
-4.38357e-09
-5.52043e-07
-1.62673e-10
-4.45125e-07
-4.74321e-07
-2.2869e-07
-9.11257e-09
-5.18377e-09
-2.90882e-09
-2.75011e-09
-2.23031e-07
-4.39038e-09
-4.40625e-07
-8.9767e-09
-5.54445e-07
-4.65765e-07
-4.97076e-09
-1.36617e-09
-1.80546e-09
-4.45116e-07
-3.50601e-09
-5.51679e-07
-4.73811e-07
2.86414e-11
-4.02387e-07
-7.48171e-09
-1.8327e-07
-5.37787e-07
-3.95519e-09
-2.90519e-09
-3.96459e-07
-2.5348e-09
-2.11966e-09
-1.78615e-07
-2.5098e-09
-5.37616e-07
-5.74867e-10
-4.57463e-07
-9.53267e-09
-3.56118e-07
1.67695e-09
-4.62975e-07
1.2457e-09
-6.88311e-09
-4.69329e-10
-6.74889e-10
-4.62833e-07
-6.43667e-09
-3.50929e-07
7.78927e-10
-4.68685e-07
9.99951e-10
-2.20347e-07
-1.18199e-09
-2.23132e-09
-6.21655e-10
-4.7457e-10
-2.19251e-07
-2.64364e-09
-1.76285e-07
-8.23691e-10
-8.90443e-10
-3.95214e-07
-5.38361e-07
-5.86959e-10
-1.22406e-09
-1.74537e-07
-5.23231e-10
-1.09513e-09
-3.95377e-07
-5.43094e-07
-7.24108e-10
-1.63268e-09
-1.75746e-07
-5.55003e-10
-1.7572e-07
-4.29285e-07
-1.03127e-09
-2.1813e-09
-9.33886e-10
-2.7814e-10
-1.74534e-07
1.48851e-10
-1.35573e-09
-1.74513e-07
4.54455e-10
-7.50821e-10
-4.29774e-07
-3.07717e-09
-5.49795e-07
2.13124e-10
-4.46706e-07
-4.70784e-07
5.41051e-10
-1.38999e-09
1.21359e-09
-5.52367e-07
1.67098e-09
-4.50643e-07
-4.79177e-07
-2.20031e-07
-9.90485e-10
-2.00979e-09
6.84414e-10
-1.30998e-09
-2.19405e-07
-1.28297e-09
-4.46824e-07
-2.2562e-09
-5.49814e-07
-4.70528e-07
-4.03679e-10
-1.38176e-09
3.53563e-11
-4.50944e-07
1.96101e-09
-5.52999e-07
-4.79544e-07
-1.57814e-09
-3.94022e-07
-2.23668e-09
-1.75334e-07
-5.36162e-07
-1.59959e-09
-1.03896e-09
-3.95468e-07
-8.43666e-10
-7.12723e-10
-1.73778e-07
-4.96928e-10
-5.40856e-07
-1.85403e-10
-4.64216e-07
-5.61502e-09
-3.45773e-07
5.36458e-10
-4.70627e-07
8.70269e-10
-2.86045e-09
1.76806e-10
4.68381e-10
-4.69789e-07
-2.82568e-09
-3.43213e-07
4.42372e-10
-4.75644e-07
7.7263e-10
-2.1824e-07
-4.45008e-10
-5.65942e-10
3.48703e-10
-1.76693e-09
-2.16822e-07
-1.51949e-09
-1.72638e-07
-3.79808e-10
8.1949e-10
-3.9445e-07
-5.4488e-07
2.21554e-10
8.64348e-10
-1.81085e-09
-1.69234e-07
-1.59311e-09
4.73936e-10
-3.92816e-07
-1.75873e-09
-5.44782e-07
-1.37374e-09
-6.09988e-11
-5.36046e-10
-1.73459e-07
5.77655e-10
-1.73451e-07
-4.30053e-07
9.3838e-10
-6.17931e-10
-4.01821e-10
7.26755e-10
-1.73784e-07
5.59053e-10
-3.52136e-10
-1.73658e-07
1.42269e-09
2.79307e-10
-4.31598e-07
8.93029e-10
-5.53507e-07
2.45892e-09
-4.52998e-07
-4.82944e-07
3.56932e-09
3.54925e-09
1.49304e-09
1.96122e-10
3.51407e-10
-5.55453e-07
1.32065e-09
1.93944e-09
-4.54831e-07
1.51153e-09
-4.85107e-07
2.44548e-09
2.00862e-09
-2.18676e-07
-4.07646e-11
-6.88575e-10
-3.64466e-10
-8.98086e-10
-2.17414e-07
5.55015e-10
-4.53394e-07
1.50199e-09
-5.5466e-07
-4.83436e-07
4.49393e-09
1.45476e-09
1.10562e-09
-5.93894e-10
5.73323e-10
-4.55451e-07
2.8685e-09
1.13303e-09
-5.56787e-07
3.57914e-11
-4.86114e-07
3.25582e-09
1.1289e-09
2.29104e-10
-3.9483e-07
-9.7236e-10
-1.7179e-07
-5.42181e-07
-5.94126e-11
6.40799e-10
-1.75641e-09
-3.93065e-07
-9.06999e-10
-5.95821e-10
-2.46874e-09
-1.68726e-07
-2.03341e-09
-5.41781e-07
-7.18619e-10
7.07412e-10
-4.73062e-07
-2.1729e-09
-3.41401e-07
3.17142e-10
-4.78083e-07
5.5274e-10
4.20915e-10
-2.7166e-09
-7.98493e-10
-1.21149e-10
-4.77244e-07
-4.46546e-10
-2.19826e-09
-3.40362e-07
3.60197e-10
-4.81068e-07
2.0296e-11
6.45172e-10
-2.17596e-07
1.15188e-09
-3.78003e-10
1.67476e-09
-2.07041e-09
-2.172e-07
-1.57366e-09
-1.67063e-07
-5.97725e-10
2.35896e-09
-3.92888e-07
-5.45101e-07
6.20495e-11
1.04228e-09
4.27004e-10
-1.67945e-07
4.54967e-10
1.9302e-09
-3.92252e-07
-8.91195e-10
-5.44376e-07
6.43183e-10
9.8913e-10
7.92966e-10
-1.75526e-07
1.59472e-09
-1.74992e-07
-4.34887e-07
3.66043e-09
2.01636e-09
-3.35392e-10
1.84959e-09
-1.7704e-07
9.46974e-10
4.64614e-10
-1.76404e-07
2.7908e-09
1.55703e-09
-4.38623e-07
2.909e-09
-5.58894e-07
5.17725e-09
-4.57229e-07
-4.8761e-07
5.53368e-09
5.0554e-09
3.57762e-09
6.58719e-10
8.4044e-10
-5.61927e-07
3.69985e-09
3.91208e-09
-4.60725e-07
3.03372e-09
-4.91385e-07
4.90201e-09
3.62591e-09
-2.17364e-07
7.52238e-11
-1.24705e-10
2.7525e-10
-3.84517e-10
-2.17255e-07
3.05869e-09
-4.58248e-07
3.15273e-09
-5.6021e-07
-4.89299e-07
6.01458e-09
3.38202e-09
1.78933e-09
7.80857e-10
2.27144e-09
-4.61391e-07
4.21828e-09
2.12267e-09
-5.62126e-07
8.49492e-10
-4.92488e-07
4.85862e-09
2.72363e-09
1.52775e-10
-3.93124e-07
1.84733e-09
-1.7013e-07
-5.43111e-07
2.93898e-10
3.03615e-09
-1.22014e-09
-3.9402e-07
1.73236e-09
2.24226e-09
1.08209e-10
-1.72481e-07
-2.91185e-10
-5.45583e-07
3.7851e-09
6.28495e-10
-4.79179e-07
1.87086e-09
-3.42239e-07
1.56457e-11
-4.82973e-07
4.09238e-09
3.11797e-10
3.04949e-09
1.38995e-10
2.86858e-10
-4.81628e-07
4.92032e-09
2.73913e-09
-3.45021e-07
1.81999e-10
-4.85503e-07
5.06755e-09
4.8857e-10
-2.17961e-07
1.20244e-09
-4.41819e-10
1.43489e-09
6.457e-11
-2.1946e-07
8.89752e-10
-1.70018e-07
1.18359e-09
2.57616e-09
-3.9316e-07
-5.45277e-07
2.0853e-09
2.28095e-09
1.23409e-09
-1.72476e-07
1.22406e-09
1.97254e-09
-3.95402e-07
1.70435e-09
-5.48463e-07
3.69044e-09
2.70275e-09
4.16401e-10
-1.78821e-07
2.29858e-09
-1.78784e-07
-4.42164e-07
3.92189e-09
2.33407e-09
9.08832e-10
1.95647e-09
-1.81687e-07
2.30679e-09
7.07296e-10
-1.81798e-07
3.91618e-09
2.54648e-09
-4.45411e-07
1.02333e-09
-5.63489e-07
5.13578e-09
-4.63443e-07
-4.94968e-07
5.70119e-09
4.04086e-09
2.62728e-09
2.53096e-09
2.16535e-09
-5.66384e-07
3.42195e-09
3.91833e-09
-4.64084e-07
3.16971e-09
-4.96719e-07
4.87466e-09
2.95981e-09
-2.18315e-07
1.22923e-09
-1.6901e-10
1.93325e-09
-1.39208e-10
-2.20109e-07
3.28115e-09
-4.63239e-07
2.94218e-09
-5.64049e-07
-4.94665e-07
5.18171e-09
3.21941e-09
4.13891e-09
-1.46569e-10
2.10165e-09
-4.63333e-07
4.67795e-09
4.2007e-09
-5.67393e-07
9.2959e-10
-4.95367e-07
4.75692e-09
2.24677e-09
3.76993e-10
-3.96259e-07
2.01296e-09
-1.75011e-07
-5.48278e-07
7.91377e-10
4.29375e-09
6.9334e-11
-4.00108e-07
3.64004e-09
2.6297e-09
6.93388e-10
-1.78334e-07
1.11696e-09
-5.51812e-07
5.11642e-09
6.5428e-10
-4.83488e-07
2.52275e-09
-3.47579e-07
3.46731e-10
-4.87994e-07
5.2018e-09
4.65843e-10
3.9645e-09
2.61635e-10
4.53893e-10
-4.84162e-07
5.30173e-09
3.29195e-09
-3.51624e-07
1.0148e-09
-4.89774e-07
5.02663e-09
4.99637e-10
-2.21729e-07
1.3362e-09
9.33021e-10
1.82147e-09
1.04599e-09
-2.24597e-07
1.17213e-09
-1.75276e-07
1.62725e-09
2.75851e-09
-3.98809e-07
-5.52159e-07
4.20696e-09
3.41917e-09
1.85863e-09
-1.78815e-07
1.68058e-09
2.60332e-09
-4.02874e-07
3.28322e-09
-5.55899e-07
4.79362e-09
3.40858e-09
9.85964e-10
-1.83748e-07
1.95384e-09
-1.83785e-07
-4.47944e-07
3.58894e-09
1.88374e-09
-5.16116e-10
5.94843e-10
-1.83826e-07
6.44e-10
-2.1825e-10
-1.84211e-07
1.34108e-09
1.14291e-10
-4.49271e-07
2.14439e-09
-5.68465e-07
4.42502e-09
-4.64865e-07
-4.97344e-07
5.06826e-09
2.12608e-09
2.09452e-09
1.21532e-09
3.36895e-09
-5.72558e-07
3.86477e-09
3.1066e-09
-4.66493e-07
1.07797e-09
-4.97683e-07
4.98076e-09
1.83394e-09
-2.23243e-07
2.42171e-09
7.11942e-10
2.46132e-09
6.99401e-10
-2.26403e-07
2.18857e-09
-4.64645e-07
2.81218e-09
-5.69037e-07
-4.97118e-07
4.40766e-09
2.34425e-09
7.969e-10
2.01653e-10
8.77876e-10
-4.67143e-07
2.53136e-09
2.40193e-09
-5.70847e-07
2.07069e-09
-4.9939e-07
3.2474e-09
2.30407e-09
9.88064e-10
-4.03928e-07
2.99043e-09
-1.82477e-07
-5.55053e-07
1.93155e-09
5.28748e-09
7.74262e-10
-4.08742e-07
4.74008e-09
2.35234e-09
8.01101e-10
-1.8563e-07
1.343e-09
-5.57976e-07
4.70661e-09
5.13497e-10
-4.83541e-07
4.43188e-09
-3.55534e-07
-1.79375e-10
-4.90547e-07
5.43577e-09
2.82507e-10
3.50059e-09
3.81169e-10
1.00596e-09
-4.8332e-07
3.6157e-09
4.53912e-09
-3.60229e-07
5.37042e-10
-4.90466e-07
4.61097e-09
8.53036e-10
-2.25857e-07
1.1592e-09
1.00623e-10
1.91802e-09
7.8788e-10
-2.28563e-07
1.7441e-09
-1.82827e-07
2.26822e-09
3.11585e-09
-4.06126e-07
-5.58836e-07
3.83526e-09
3.96205e-09
1.32269e-09
-1.85919e-07
1.76915e-09
3.12654e-09
-4.10365e-07
3.03058e-09
-5.60325e-07
2.80882e-09
3.12876e-09
1.6626e-10
-1.84511e-07
7.86062e-10
-1.84046e-07
-4.4952e-07
1.71827e-09
-5.17093e-10
-7.09082e-10
7.48974e-10
-1.8455e-07
9.0939e-10
-3.61976e-10
-1.84594e-07
-1.30243e-10
-1.45658e-09
-4.47733e-07
2.7813e-09
-5.7579e-07
3.37283e-09
-4.67027e-07
-4.98327e-07
4.28462e-09
2.51383e-09
1.35056e-09
-4.62729e-10
-8.32585e-11
-5.76136e-07
2.56815e-09
6.89399e-10
-4.67059e-07
-1.25096e-09
-5.00221e-07
2.18218e-09
3.17945e-10
-2.2821e-07
1.63688e-09
1.69473e-10
7.46833e-10
-4.20282e-10
-2.28536e-07
1.00258e-09
-4.6869e-07
3.33678e-09
-5.73658e-07
-5.00733e-07
3.22817e-09
2.45487e-09
2.03989e-09
-2.33238e-10
9.69753e-12
-4.68687e-07
5.702e-10
2.94081e-09
-5.76467e-07
3.82615e-10
-5.01209e-07
2.32958e-09
1.09654e-09
1.08678e-09
-4.1203e-07
-6.92341e-12
-1.85622e-07
-5.60181e-07
6.84231e-10
2.60117e-09
-3.80743e-10
-4.12543e-07
4.73442e-10
4.36858e-10
-2.47462e-10
-1.85811e-07
7.76148e-11
-5.60738e-07
5.34839e-10
9.46507e-10
-4.84034e-07
3.21101e-09
-3.63735e-07
5.90739e-10
-4.89538e-07
2.65993e-09
5.69698e-10
6.69678e-11
5.00114e-11
1.7332e-10
-4.84311e-07
2.4869e-10
1.36971e-10
-3.64204e-07
3.8133e-10
-4.90124e-07
4.97477e-10
3.98597e-10
-2.31049e-07
1.51652e-09
9.69517e-10
7.79993e-10
-8.46817e-10
-2.30982e-07
-1.16874e-09
-1.85677e-07
9.26857e-10
2.59195e-09
-4.13284e-07
-5.61152e-07
2.45736e-10
2.00451e-09
-5.13694e-10
-1.85675e-07
5.11593e-10
1.62252e-09
-4.13181e-07
-9.44982e-10
-5.6098e-07
-4.27621e-10
1.36508e-09
-6.69198e-10
-1.8432e-07
5.21899e-10
-1.84308e-07
-4.46567e-07
1.92238e-10
-1.50587e-09
-7.47186e-10
5.63609e-10
-1.84137e-07
4.85334e-10
-6.76565e-10
-1.84117e-07
5.5886e-10
-8.7333e-10
-4.46514e-07
1.31931e-10
-5.76312e-07
1.20996e-09
-4.67474e-07
-5.00275e-07
1.85773e-09
-4.62326e-10
1.5273e-09
-7.98189e-10
-4.9185e-10
-5.76547e-07
1.40677e-09
1.54392e-09
-4.6866e-07
-5.97452e-10
-5.00827e-07
2.18207e-09
-5.78044e-10
-2.31027e-07
2.29453e-09
1.96063e-10
5.6028e-10
-6.55201e-10
-2.30932e-07
-9.91499e-10
-4.69059e-07
7.22669e-10
-5.7636e-07
-5.0165e-07
3.50412e-10
-1.78311e-10
1.7684e-10
-8.59628e-10
-4.89195e-10
-4.6976e-07
4.93976e-10
6.19712e-10
-5.76338e-07
-9.40668e-10
-5.01464e-07
6.42007e-10
-6.97682e-10
-6.42703e-11
-4.13301e-07
4.07585e-11
-1.85736e-07
-5.60464e-07
2.04734e-10
-5.01731e-10
-6.58358e-10
-4.13258e-07
-3.95291e-11
2.16577e-10
-3.9465e-10
-1.85558e-07
-5.04281e-10
-5.60484e-07
8.25247e-11
5.82853e-10
-4.84329e-07
-1.70986e-10
-3.64308e-07
4.52929e-10
-4.89955e-07
-4.32218e-10
6.74971e-10
-4.51547e-10
5.1045e-11
2.4945e-10
-4.84952e-07
-5.81908e-10
-3.5678e-10
-3.64293e-07
3.92599e-10
-4.90366e-07
-2.62127e-10
5.65642e-10
-2.31451e-07
1.0186e-09
-5.49105e-10
7.63997e-10
-8.42592e-11
-2.32131e-07
-6.3591e-10
-1.85847e-07
8.07515e-10
1.71411e-09
-4.13987e-07
-5.62223e-07
7.85179e-10
1.53614e-09
-4.4689e-10
-1.86219e-07
8.19287e-10
1.42699e-09
-4.15555e-07
9.05217e-10
-5.65009e-07
1.66568e-09
2.09998e-09
-4.36675e-10
-1.84376e-07
6.94693e-10
-1.84355e-07
-4.47446e-07
1.26814e-09
-7.84461e-11
-1.25032e-10
6.23869e-10
-1.84875e-07
7.33334e-10
-1.96431e-10
-1.84892e-07
1.86193e-09
1.05021e-09
-4.4975e-07
1.14259e-09
-5.78748e-07
1.73359e-09
-4.70103e-07
-5.01948e-07
2.78138e-09
1.21606e-09
1.22264e-09
6.02233e-10
2.41515e-09
-5.81288e-07
1.26342e-09
2.41593e-09
-4.72557e-07
2.50221e-09
-5.03181e-07
2.8788e-09
3.18555e-09
-2.31377e-07
7.19024e-10
-2.74164e-10
6.45215e-10
6.59305e-11
-2.32088e-07
-2.00044e-10
-4.70996e-07
2.30813e-09
-5.78568e-07
-5.02215e-07
2.61509e-09
2.44955e-10
1.13427e-09
-7.80306e-11
1.38481e-09
-4.73692e-07
3.49603e-09
2.77004e-09
-5.81619e-07
8.47455e-10
-5.03899e-07
4.10491e-09
1.73379e-09
-2.48621e-10
-4.14041e-07
2.50149e-10
-1.85682e-07
-5.61705e-07
-8.42869e-11
1.3064e-09
3.6409e-10
-4.15298e-07
9.59032e-10
2.99427e-10
-3.28897e-11
-1.85949e-07
9.86939e-10
-5.63626e-07
1.59794e-09
-3.43696e-11
-4.85813e-07
-3.2516e-10
-3.64295e-07
3.96612e-10
-4.91215e-07
3.14833e-11
4.58268e-10
-9.72927e-11
1.79354e-10
7.66687e-10
-4.86309e-07
6.18772e-10
-2.74413e-11
-3.64425e-07
3.36664e-10
-4.91053e-07
-1.1387e-10
6.91201e-10
6.49103e-10
-8.3124e-10
-2.31949e-07
-9.58041e-10
-1.86016e-07
7.55489e-10
1.12865e-09
-4.15211e-07
-1.13238e-09
-5.65161e-07
1.4555e-09
-7.5418e-10
-1.84695e-07
1.92935e-11
-1.84705e-07
2.11641e-10
-4.2177e-10
-4.50274e-07
-6.36772e-10
-5.81226e-07
3.38275e-10
-4.73301e-07
4.86194e-10
-1.88937e-09
-5.02077e-07
1.81228e-10
-4.52563e-10
-2.31817e-07
-7.82836e-10
-4.73843e-07
2.77701e-10
-5.81406e-07
-6.37988e-10
-1.3937e-09
-5.02373e-07
-4.27739e-10
-4.15034e-07
-1.57596e-10
-1.85706e-07
-3.07953e-10
-6.26604e-10
-5.63277e-07
-1.05238e-09
-4.84802e-07
-8.89143e-10
-3.64049e-07
3.03194e-10
-2.39161e-09
-4.90689e-07
8.56585e-11
2.69214e-09
-4.93132e-07
3.95466e-10
3.62774e-09
-4.87787e-07
-4.89995e-07
5.7792e-09
3.05825e-09
1.47031e-09
2.17901e-09
2.28009e-09
-4.97752e-07
2.43706e-09
2.68181e-09
3.73173e-09
-4.89576e-07
4.55364e-09
-4.92714e-07
3.12726e-09
4.11011e-09
-4.79475e-07
5.55781e-09
-4.79966e-07
-4.81858e-07
6.70708e-09
4.71209e-09
4.19732e-09
2.23319e-09
2.86395e-09
4.29476e-09
-4.80427e-07
4.73675e-09
2.01566e-09
-4.8123e-07
5.50684e-09
2.60022e-09
-4.82365e-07
8.15755e-09
-4.82824e-07
-1.81943e-11
6.70301e-09
-4.79758e-07
-4.79391e-07
1.10962e-08
5.28597e-09
3.95014e-09
5.91175e-09
7.46644e-09
-4.8499e-07
3.20354e-09
5.45285e-09
7.22386e-09
-4.81016e-07
8.61616e-09
-4.79982e-07
4.89418e-09
1.54743e-09
-4.89314e-07
2.27324e-09
-4.93857e-07
-4.91793e-07
5.25525e-09
9.52337e-10
1.98173e-09
6.66203e-10
1.68219e-09
4.68465e-09
-4.9257e-07
1.59347e-09
8.70193e-10
-4.96373e-07
4.17645e-09
1.54207e-09
-4.94236e-07
4.08667e-09
-4.80128e-07
9.26167e-09
-4.84464e-07
-4.79991e-07
1.36897e-08
1.63119e-09
7.8521e-09
1.5279e-09
1.80778e-09
1.00282e-08
-4.81511e-07
8.47645e-09
8.32412e-12
-4.87244e-07
1.10121e-08
1.51155e-10
-4.8087e-07
1.49176e-08
-4.68353e-07
4.28133e-09
2.0441e-08
-4.684e-07
-4.39592e-07
9.58585e-09
2.18406e-08
1.17569e-08
7.03742e-09
8.26398e-09
-4.68901e-07
1.26569e-08
1.31325e-08
5.10433e-09
-4.68587e-07
2.36311e-09
-4.37798e-07
1.72392e-08
1.37028e-09
-4.8707e-07
1.09415e-09
-4.80767e-07
6.89771e-10
-4.81764e-07
4.2767e-09
1.04995e-09
2.0429e-09
7.77419e-10
1.04187e-09
4.58492e-09
-4.89112e-07
2.11481e-09
-4.82664e-07
5.79312e-10
4.52772e-09
-4.83891e-07
7.55942e-10
2.23788e-09
-4.72783e-07
4.31219e-09
-4.7513e-07
1.59522e-09
-4.61711e-07
7.27602e-09
1.51532e-09
8.22118e-09
-7.88309e-11
4.55987e-10
1.05578e-08
-4.75424e-07
7.10796e-09
-4.79078e-07
1.28941e-09
7.72354e-09
-4.63669e-07
1.798e-09
7.83047e-09
-3.22781e-07
9.87753e-09
1.19643e-08
-4.03395e-07
5.00684e-09
-1.75096e-07
-2.57866e-08
6.00752e-09
5.58e-09
3.32877e-09
-4.79921e-09
-3.16303e-07
6.26483e-09
3.48333e-09
-3.98898e-07
3.07217e-09
-1.86169e-07
6.44296e-09
3.31356e-09
3.42338e-09
-5.00485e-07
2.06618e-09
5.40069e-09
-4.91627e-07
-4.94463e-07
6.18463e-09
4.38834e-09
3.43145e-09
2.24559e-09
2.9371e-09
-5.02254e-07
2.90692e-09
5.46592e-09
5.73108e-09
-4.95676e-07
6.4865e-09
-4.98319e-07
5.77251e-09
6.25585e-09
-4.8237e-07
7.91444e-09
-4.83258e-07
-4.83266e-07
8.83071e-09
6.24122e-09
6.00693e-09
4.12032e-09
5.23629e-09
6.94049e-09
-4.84914e-07
7.11019e-09
4.47862e-09
-4.85867e-07
8.61959e-09
5.82769e-09
-4.85367e-07
9.99461e-09
-4.86794e-07
2.83259e-09
8.45473e-09
-4.81231e-07
-4.7977e-07
1.19087e-08
6.32818e-09
6.90787e-09
8.54883e-09
1.08327e-08
-4.90198e-07
5.96555e-09
8.73326e-09
1.03525e-08
-4.83149e-07
1.37074e-08
-4.81911e-07
7.99953e-09
3.09624e-09
-4.94847e-07
5.18145e-09
-4.9807e-07
-4.95496e-07
7.5785e-09
1.95918e-09
3.88369e-09
3.04548e-10
2.55778e-09
6.87292e-09
-4.97671e-07
5.59546e-09
2.56718e-10
-4.99832e-07
7.88172e-09
2.39412e-09
-4.97619e-07
4.75719e-09
-4.8182e-07
1.07755e-08
-4.8843e-07
-4.80952e-07
1.41169e-08
1.49742e-09
1.01783e-08
3.93992e-09
5.43941e-09
1.31182e-08
-4.84372e-07
1.12542e-08
2.27945e-09
-4.90142e-07
1.59003e-08
3.8059e-09
-4.83964e-07
1.19879e-08
-4.68448e-07
9.8108e-09
1.7402e-08
-4.68369e-07
-4.34399e-07
7.54984e-09
1.84409e-08
1.49725e-08
9.9406e-09
1.42429e-08
-4.68453e-07
1.44422e-08
1.93978e-08
6.91811e-09
-4.68844e-07
8.17889e-09
-4.32176e-07
2.32395e-08
1.59626e-09
-4.89703e-07
4.95178e-09
-4.83915e-07
7.39336e-10
-4.84385e-07
5.76678e-09
1.27539e-09
6.96225e-09
6.59201e-10
1.84259e-09
8.52932e-09
-4.90718e-07
7.26275e-09
-4.85967e-07
5.1618e-10
8.71635e-09
-4.84686e-07
6.89702e-10
1.15455e-09
-4.7823e-07
6.73271e-09
-4.81806e-07
1.60606e-09
-4.66522e-07
9.07355e-09
1.66653e-09
9.0968e-09
9.08871e-10
1.56196e-09
1.38046e-08
-4.80694e-07
8.32508e-09
-4.81637e-07
1.13077e-09
1.2382e-08
-4.70751e-07
1.73416e-09
2.41903e-09
-3.07491e-07
1.8338e-08
1.07675e-08
-4.02225e-07
3.22929e-09
-1.67755e-07
-1.00131e-08
4.78636e-09
1.55791e-08
4.58285e-09
1.58735e-09
-2.99181e-07
1.38607e-08
1.37612e-08
-4.02267e-07
3.24646e-09
-1.54903e-07
-1.81723e-09
4.31316e-09
3.12539e-09
-5.02121e-07
1.7635e-09
5.89289e-09
-4.99255e-07
-5.00612e-07
6.45178e-09
4.85922e-09
3.26619e-09
3.13407e-09
4.88074e-09
-5.0319e-07
3.14473e-09
5.32901e-09
4.56016e-09
-5.01135e-07
6.47908e-09
-5.01856e-07
4.97488e-09
6.36826e-09
-4.88291e-07
7.87223e-09
-4.88957e-07
-4.88085e-07
9.73153e-09
7.22715e-09
5.45949e-09
3.6283e-09
4.94974e-09
6.72609e-09
-4.91548e-07
6.76912e-09
3.87286e-09
-4.91214e-07
9.09454e-09
6.13248e-09
-4.91593e-07
1.15185e-08
-4.94038e-07
4.82215e-09
1.00888e-08
-4.86051e-07
-4.85451e-07
1.61751e-08
8.97227e-09
7.01838e-09
8.33237e-09
1.1441e-08
-4.97829e-07
5.84789e-09
9.64912e-09
1.17819e-08
-4.90056e-07
1.65883e-08
-4.90009e-07
9.05925e-09
3.30201e-09
-5.0012e-07
5.61608e-09
-5.00638e-07
-4.99644e-07
8.38475e-09
2.55842e-09
5.13591e-09
1.36345e-09
2.34164e-09
6.29486e-09
-5.01374e-07
6.38267e-09
9.45128e-10
-5.01485e-07
8.37124e-09
2.02176e-09
-5.01312e-07
6.87942e-09
-4.87548e-07
1.30752e-08
-4.93658e-07
-4.87063e-07
1.8328e-08
4.72525e-09
1.01436e-08
3.27205e-09
5.80821e-09
1.40917e-08
-4.91172e-07
1.3599e-08
1.72815e-09
-4.97342e-07
1.83585e-08
4.53196e-09
-4.90546e-07
1.79564e-08
-4.70937e-07
1.49249e-08
2.25163e-08
-4.71274e-07
-4.29283e-07
1.3972e-08
2.36075e-08
1.70161e-08
1.23746e-08
2.02359e-08
-4.74633e-07
1.70648e-08
2.49044e-08
1.0019e-08
-4.75465e-07
1.50122e-08
-4.28582e-07
2.94265e-08
2.52595e-09
-4.93272e-07
7.5615e-09
-4.88627e-07
7.64973e-10
-4.85987e-07
1.00616e-08
1.32735e-09
7.12664e-09
5.23425e-10
1.84909e-09
1.00162e-08
-4.95989e-07
7.7468e-09
-4.91337e-07
5.12621e-10
1.16364e-08
-4.88895e-07
8.67167e-10
2.07582e-09
-4.83727e-07
1.18641e-08
-4.83569e-07
1.53005e-09
-4.7454e-07
1.60047e-08
1.72407e-09
1.32135e-08
1.33531e-09
2.35392e-09
1.73103e-08
-4.85645e-07
1.42909e-08
-4.86135e-07
1.24711e-09
1.91237e-08
-4.78287e-07
1.26829e-09
4.97845e-09
-2.847e-07
2.15299e-08
1.9011e-08
-4.0306e-07
3.30047e-09
-1.35226e-07
2.35191e-10
4.07773e-09
2.41946e-08
6.18091e-09
4.84282e-09
-2.69779e-07
1.94429e-08
2.36556e-08
-4.03997e-07
2.58652e-09
-1.14176e-07
3.19021e-09
4.25841e-09
5.92687e-09
-5.04766e-07
2.98404e-09
5.41769e-09
-5.01374e-07
-5.02438e-07
6.90124e-09
5.0257e-09
3.62855e-09
4.7235e-09
6.0146e-09
-5.06015e-07
3.65673e-09
5.13193e-09
4.63533e-09
-5.01437e-07
7.45063e-09
-5.03698e-07
4.95524e-09
4.09809e-09
-4.94594e-07
6.17749e-09
-4.93509e-07
-4.96052e-07
8.81581e-09
5.91845e-09
4.17179e-09
1.88542e-09
2.01918e-09
5.91716e-09
-4.96524e-07
5.32102e-09
2.78947e-09
-4.96487e-07
7.56569e-09
4.07194e-09
-5.00349e-07
1.05478e-08
-5.0079e-07
4.75329e-09
9.72794e-09
-4.95884e-07
-4.95737e-07
1.68965e-08
9.10746e-09
6.29818e-09
4.88184e-09
9.35126e-09
-5.01661e-07
5.26837e-09
9.10795e-09
9.63549e-09
-5.0218e-07
1.47203e-08
-5.01997e-07
9.99892e-09
2.52238e-09
-5.03024e-07
6.63389e-09
-5.02333e-07
-5.02614e-07
8.64422e-09
1.81349e-09
5.12844e-09
2.14174e-09
2.51878e-09
5.67346e-09
-5.03784e-07
5.97215e-09
9.72076e-10
-5.02429e-07
7.59263e-09
9.50531e-10
-5.02666e-07
5.98757e-09
-4.95944e-07