/*--------------------------------*- C++ -*----------------------------------*\
| =========                 |                                                 |
| \\      /  F ield         | OpenFOAM: The Open Source CFD Toolbox           |
|  \\    /   O peration     | Version:  2.2.1                                 |
|   \\  /    A nd           | Web:      www.OpenFOAM.org                      |
|    \\/     M anipulation  |                                                 |
\*---------------------------------------------------------------------------*/
FoamFile
{
    version     2.0;
    format      ascii;
    class       surfaceScalarField;
    location    "14.66426";
    object      phi_0;
}
// * * * * * * * * * * * * * * * * * * * * * * * * * * * * * * * * * * * * * //

dimensions      [1 0 -1 0 0 0 0];

internalField   nonuniform List<scalar> 
75547
(
3.42224e-09
4.01289e-09
-1.08983e-08
-3.78574e-07
-6.86388e-09
-1.9393e-06
1.21333e-08
1.03236e-08
6.07658e-09
2.59981e-09
3.63594e-09
2.90499e-09
1.8557e-09
-2.56456e-09
1.9453e-09
4.70975e-09
-9.92953e-09
1.45823e-09
-3.78202e-07
6.77691e-09
-2.54628e-09
-1.88654e-06
7.34082e-09
8.38968e-09
3.88907e-09
-1.06636e-09
6.21357e-09
7.5911e-09
2.68832e-09
-2.06616e-09
6.92867e-09
-1.89552e-06
1.71264e-08
-2.35508e-09
-8.18116e-09
-1.94134e-06
5.93e-09
4.92783e-09
3.53547e-09
-6.68085e-10
1.21516e-08
1.06895e-08
5.77242e-09
3.1011e-09
2.02383e-08
1.10057e-09
-1.897e-06
6.81637e-10
-1.835e-06
3.66981e-08
3.59942e-09
-1.08261e-08
-2.59795e-10
-2.97296e-07
-5.03068e-09
-1.87776e-06
9.07844e-09
6.66867e-09
3.34825e-09
2.40108e-09
3.57824e-09
1.02088e-08
-1.85823e-06
5.10222e-09
-1.45405e-06
-1.12941e-08
6.79106e-09
3.74323e-07
9.06297e-10
2.68072e-10
-4.04703e-09
-3.7145e-07
1.36569e-08
-4.87637e-07
3.08345e-09
3.06208e-09
-6.3681e-10
-3.13857e-09
1.13478e-09
1.50797e-09
-1.42543e-09
-4.89457e-09
-4.90415e-07
-4.86024e-07
-4.87478e-07
-9.79397e-11
3.74059e-07
1.97026e-09
-3.07143e-09
-1.62129e-09
-3.71337e-07
1.51038e-08
3.74465e-09
-4.64694e-07
3.71005e-09
4.89368e-09
-1.3308e-09
-6.38337e-09
2.26121e-09
3.78577e-09
-2.9293e-09
-7.653e-09
-4.78217e-07
-4.78725e-07
-4.80107e-07
3.77875e-08
-4.81955e-07
-4.82419e-07
-4.79185e-07
-4.7787e-07
1.68775e-08
1.45985e-08
-1.08376e-09
-4.89703e-07
2.22057e-09
3.03623e-09
-5.27351e-10
-3.35986e-09
2.8691e-09
3.66899e-09
-1.17498e-09
-3.30851e-09
-4.87051e-07
-4.92123e-07
-4.89406e-07
4.14901e-08
1.99553e-09
-4.81989e-07
-4.79179e-07
-4.82955e-07
-4.78019e-07
3.32635e-08
-4.70922e-07
-4.66596e-07
-4.66793e-07
-4.43524e-07
5.88446e-08
2.92063e-07
1.04414e-09
-5.52873e-09
7.75374e-11
-2.87656e-07
3.82072e-08
-4.83344e-07
5.55964e-09
4.72933e-09
-1.74729e-09
-1.8877e-09
-4.84502e-07
-4.79453e-07
-4.78902e-07
2.49389e-09
5.44521e-08
-4.77687e-07
-4.6891e-07
-4.72128e-07
-4.5947e-07
5.71253e-09
-4.25936e-07
-3.3461e-07
-3.94356e-07
-2.14668e-07
-1.27925e-10
3.36744e-09
3.70879e-07
5.38742e-10
6.04997e-10
-1.58504e-09
-3.70438e-07
2.19176e-09
-2.85254e-10
1.50184e-10
-4.56514e-10
-4.89237e-07
3.70907e-07
1.6393e-09
-5.89854e-10
-1.30441e-09
-3.70652e-07
7.5065e-10
-6.88032e-10
1.37641e-09
-5.62331e-10
-4.65571e-07
-1.24768e-09
-2.07286e-09
1.95652e-09
8.17547e-10
-4.81408e-07
1.18627e-09
1.55532e-09
3.45728e-10
-1.14139e-09
-4.91649e-07
3.84756e-10
-2.51635e-09
3.12824e-09
-1.15298e-09
-4.81833e-07
-1.39495e-09
-4.70224e-09
6.34465e-09
8.84124e-10
-4.72053e-07
2.85685e-07
1.01541e-09
-2.50401e-09
-4.39284e-11
-2.84152e-07
-2.16861e-12
1.03995e-09
3.82114e-10
-8.36409e-11
-4.8468e-07
3.65059e-09
-2.53207e-09
3.51319e-09
-1.37141e-09
-4.80947e-07
4.261e-09
-6.77953e-09
1.99513e-08
6.55104e-10
-4.44024e-07
3.714e-07
-9.49429e-10
2.56599e-09
9.81751e-10
-3.73999e-07
1.13563e-09
-2.72051e-09
4.93324e-07
2.69501e-09
1.55281e-09
-4.95987e-07
3.71516e-07
2.60816e-10
1.41516e-09
4.63682e-10
-3.73656e-07
-1.86322e-09
-3.16918e-09
4.67621e-07
4.48004e-09
2.66776e-09
-4.69736e-07
4.83243e-07
-3.73661e-09
-5.22156e-09
4.83844e-09
5.81325e-09
-4.84937e-07
-8.08596e-10
2.18855e-10
4.95168e-07
2.56235e-09
5.14979e-10
-4.97656e-07
4.84512e-07
-2.79597e-09
-5.12526e-09
7.60666e-09
2.26583e-09
-4.86463e-07
4.73595e-07
-6.40541e-09
-9.39999e-09
1.03435e-08
7.37553e-09
-4.75509e-07
2.83106e-07
4.42933e-10
2.15342e-09
8.81661e-12
-2.85711e-07
-3.75391e-09
4.87077e-07
-6.65393e-11
4.9747e-09
3.47415e-10
-4.88579e-07
4.84496e-07
-2.53837e-10
-5.92863e-09
8.89277e-09
-1.5594e-10
-4.87051e-07
4.37271e-07
-3.87127e-09
-1.20414e-08
2.20188e-08
1.59687e-09
-4.44974e-07
3.76385e-07
-1.36446e-09
2.95709e-09
4.44882e-10
-3.78423e-07
4.66286e-10
-3.05371e-09
4.98856e-07
2.93649e-09
2.44946e-10
-4.9945e-07
3.75761e-07
-8.21615e-11
2.52462e-09
4.76398e-10
-3.7868e-07
-1.94868e-09
-3.42555e-09
4.72612e-07
4.97104e-09
3.49119e-09
-4.757e-07
4.87722e-07
-3.6317e-09
-6.02199e-09
6.04909e-09
7.81854e-09
-4.91936e-07
-6.86925e-10
-1.69289e-09
4.99262e-07
2.73497e-09
4.37401e-10
-5.00054e-07
4.8923e-07
-3.8908e-09
-5.10143e-09
9.35478e-09
4.02128e-09
-4.93614e-07
4.76951e-07
-1.03629e-08
-1.28789e-08
1.42224e-08
1.25257e-08
-4.80458e-07
2.88791e-07
-5.17292e-10
3.04085e-09
3.11939e-10
-2.91627e-07
-5.03717e-09
4.91023e-07
7.98821e-11
7.03689e-09
4.64627e-10
-4.93567e-07
4.86248e-07
-2.84704e-09
-9.62276e-09
1.39697e-08
1.40028e-09
-4.89148e-07
4.44413e-07
-1.07693e-08
-1.96522e-08
2.70175e-08
5.51537e-09
-4.46524e-07
3.81624e-07
-1.07524e-09
2.00099e-09
1.49876e-09
-3.84049e-07
-1.9851e-09
-2.86974e-09
5.00723e-07
3.12825e-09
2.71175e-09
-5.01708e-07
3.81965e-07
-3.25545e-11
2.31432e-09
2.46176e-10
-3.84493e-07
-1.44369e-09
-3.32148e-09
4.7694e-07
4.3306e-09
2.31032e-09
-4.78816e-07
4.96e-07
-2.60131e-09
-5.40432e-09
5.4394e-09
6.14108e-09
-4.99575e-07
-1.50027e-09
-3.54341e-09
5.01984e-07
3.78159e-09
1.35335e-09
-5.02075e-07
4.96862e-07
-2.83599e-09
-5.25387e-09
8.3653e-09
2.51561e-09
-4.99653e-07
4.83976e-07
-1.10568e-08
-1.30674e-08
1.58345e-08
1.40998e-08
-4.89786e-07
2.9516e-07
-1.1523e-09
5.18996e-09
3.43097e-10
-2.9954e-07
-5.98719e-09
4.9497e-07
-8.54339e-10
7.51822e-09
-2.16669e-10
-4.9543e-07
4.91952e-07
-1.8541e-09
-1.03756e-08
1.51908e-08
6.64323e-10
-4.95577e-07
4.4957e-07
-1.32952e-08
-2.07094e-08
3.00906e-08
7.27162e-09
-4.52928e-07
3.86764e-07
-5.1778e-10
1.77837e-09
1.46687e-09
-3.89492e-07
-1.29501e-09
-2.32999e-09
5.02913e-07
2.95839e-09
2.23551e-09
-5.04482e-07
3.8571e-07
9.50348e-10
1.45339e-09
-6.15801e-11
-3.88052e-07
-3.46816e-10
-1.48072e-09
4.81264e-07
3.02221e-09
8.12237e-10
-4.83271e-07
5.00204e-07
-3.74455e-09
-4.70028e-09
4.58525e-09
5.27654e-09
-5.01621e-07
-1.04889e-09
-2.37059e-09
5.02535e-07
3.49076e-09
1.21718e-09
-5.03823e-07
5.01449e-07
-2.65491e-09
-4.55553e-09
6.82273e-09
2.07826e-09
-5.0314e-07
4.97233e-07
-8.38881e-09
-1.07511e-08
1.45956e-08
1.12277e-08
-5.03917e-07
3.02621e-07
1.40584e-12
1.29514e-09
2.94909e-10
-3.04212e-07
-1.7472e-09
4.96778e-07
-5.62797e-10
3.70912e-09
8.43104e-10
-4.9902e-07
5.00032e-07
3.95202e-10
-6.16004e-09
9.94371e-09
-6.63771e-10
-5.03547e-07
4.57326e-07
-1.05257e-08
-1.73479e-08
2.65634e-08
6.94391e-09
-4.6296e-07
3.8963e-07
-4.39066e-10
1.12256e-09
-9.37595e-10
-3.89376e-07
-1.84385e-09
-2.13568e-09
5.04754e-07
2.37582e-09
9.28644e-10
-5.04079e-07
3.90221e-07
8.07163e-10
-2.01612e-10
-1.18621e-09
-3.8964e-07
1.54053e-09
3.44219e-10
4.84081e-07
6.26548e-10
-1.14566e-09
-4.85446e-07
5.03836e-07
-4.28758e-10
-4.04361e-10
1.62277e-09
1.94841e-09
-5.06574e-07
-2.78033e-10
-1.01782e-09
5.05589e-07
4.08917e-10
-4.40578e-10
-5.04261e-07
5.05597e-07
1.5784e-09
-5.22006e-10
2.54391e-09
-5.09239e-10
-5.08688e-07
5.10538e-07
-1.65456e-09
-4.88415e-09
7.60826e-09
3.28583e-09
-5.14893e-07
3.04577e-07
1.16214e-10
-1.7579e-10
1.77275e-10
-3.04695e-07
5.36033e-10
5.00356e-07
4.23108e-11
-8.12628e-10
1.74166e-10
-5.00296e-07
5.06596e-07
1.49933e-09
1.49344e-10
1.38908e-09
-1.79074e-09
-5.07843e-07
4.70762e-07
-3.25489e-09
-3.21886e-09
1.17991e-08
1.42208e-09
-4.77509e-07
3.89542e-07
-6.76457e-10
1.49592e-09
1.61506e-10
-3.90523e-07
-1.09607e-10
-2.00629e-09
5.04808e-07
1.96099e-09
1.9038e-09
-5.06557e-07
3.89634e-07
4.56607e-10
1.06896e-09
-6.99835e-10
-3.9046e-07
-1.14009e-09
-2.42572e-09
4.87363e-07
2.44779e-09
6.25664e-10
-4.8687e-07
5.0719e-07
-7.20045e-10
-2.82676e-09
7.76619e-10
-5.09742e-10
-5.0391e-07
5.86951e-11
-7.56896e-10
5.04828e-07
2.68782e-09
-2.34223e-10
-5.06584e-07
5.09106e-07
-5.15803e-11
-1.604e-09
-1.1435e-09
-2.34944e-09
-5.03957e-07
5.14735e-07
1.68148e-09
1.99106e-09
-1.72769e-09
-5.2469e-09
-5.11433e-07
3.04689e-07
1.25422e-10
-1.01809e-10
6.99151e-11
-3.04782e-07
-7.0989e-10
5.00617e-07
3.27549e-10
2.53649e-11
-1.90056e-10
-5.0007e-07
5.07053e-07
2.53179e-09
3.48351e-09
-8.45979e-09
-1.05701e-09
-5.03552e-07
4.80255e-07
3.58343e-09
1.52457e-08
-1.31006e-09
-4.92466e-09
-3.43241e-09
-1.39632e-09
-3.63595e-09
-1.13039e-07
-1.24603e-07
-1.22388e-07
-1.24355e-07
3.91724e-07
-5.73332e-10
1.27147e-09
-7.93975e-10
-3.91628e-07
8.25225e-10
-1.01424e-09
5.09581e-07
8.35931e-10
-9.408e-10
-5.09287e-07
3.91712e-07
2.06012e-10
-1.95396e-10
-1.05663e-10
-3.91617e-07
1.7631e-10
-3.1595e-10
4.86345e-07
-2.12036e-10
-9.13523e-10
-4.8508e-07
4.99268e-07
3.87426e-09
1.22545e-09
-2.71469e-09
-8.43577e-09
-4.93217e-07
4.15001e-10
2.88865e-10
5.09484e-07
-3.30074e-11
-2.41445e-10
-5.09914e-07
4.99794e-07
2.89895e-09
2.05387e-09
-5.36296e-09
-5.32878e-09
-4.94055e-07
5.06087e-07
1.08584e-08
6.55349e-09
-1.34343e-09
-2.67113e-09
-5.03038e-07
-2.90917e-09
-1.86003e-09
-2.44675e-09
-3.73363e-09
-2.35992e-09
-3.13683e-09
3.04897e-07
8.5235e-11
-5.38214e-10
-2.10121e-10
-3.04234e-07
1.30141e-09
4.97438e-07
1.64866e-10
-3.77527e-09
-2.13476e-09
-4.92995e-07
4.96154e-07
5.58946e-09
9.11791e-09
-1.5373e-08
-5.37406e-09
-4.90115e-07
6.52342e-09
-8.6076e-10
-1.28661e-07
2.58681e-09
-7.73711e-09
1.28149e-07
-2.29516e-07
-3.33119e-09
-1.02178e-08
-1.73939e-09
-4.0158e-09
-2.23761e-07
-7.35853e-09
-1.83592e-07
-2.15599e-09
4.46137e-10
-4.03839e-07
-5.37465e-07
-2.09083e-09
-2.67987e-09
-1.79752e-07
-1.16046e-09
-1.4959e-09
-3.98006e-07
-5.38475e-07
-5.65202e-10
-5.5503e-09
-1.82499e-07
-4.41132e-09
-1.82473e-07
-4.31673e-07
-5.46637e-09
-6.97274e-09
-3.18764e-09
-1.02661e-09
-1.78285e-07
-2.03406e-09
-2.19395e-09
-1.78245e-07
-2.57045e-09
-4.01423e-09
-4.3031e-07
-9.72201e-09
-5.54937e-07
-2.61785e-09
-4.40658e-07
-4.66144e-07
6.69884e-10
-5.94783e-09
-4.38356e-09
-5.52043e-07
-1.62644e-10
-4.45125e-07
-4.74322e-07
-2.2869e-07
-9.11254e-09
-5.1838e-09
-2.90877e-09
-2.75016e-09
-2.23031e-07
-4.39048e-09
-4.40625e-07
-8.97668e-09
-5.54445e-07
-4.65765e-07
-4.97068e-09
-1.36625e-09
-1.80556e-09
-4.45116e-07
-3.50594e-09
-5.51679e-07
-4.73811e-07
2.86654e-11
-4.02387e-07
-7.48177e-09
-1.8327e-07
-5.37787e-07
-3.95517e-09
-2.90517e-09
-3.9646e-07
-2.53486e-09
-2.11961e-09
-1.78615e-07
-2.50978e-09
-5.37616e-07
-5.74896e-10
-4.57463e-07
-9.53268e-09
-3.56118e-07
1.67689e-09
-4.62975e-07
1.24563e-09
-6.88304e-09
-4.69361e-10
-6.74921e-10
-4.62833e-07
-6.43669e-09
-3.50929e-07
7.78861e-10
-4.68685e-07
9.99878e-10
-2.20347e-07
-1.18196e-09
-2.23134e-09
-6.21647e-10
-4.74571e-10
-2.19251e-07
-2.64361e-09
-1.76285e-07
-8.23723e-10
-8.90461e-10
-3.95214e-07
-5.3836e-07
-5.87003e-10
-1.22398e-09
-1.74537e-07
-5.23262e-10
-1.09519e-09
-3.95377e-07
-5.43094e-07
-7.24178e-10
-1.63271e-09
-1.75746e-07
-5.54977e-10
-1.7572e-07
-4.29285e-07
-1.03127e-09
-2.18131e-09
-9.33905e-10
-2.78126e-10
-1.74534e-07
1.48893e-10
-1.35578e-09
-1.74513e-07
4.54464e-10
-7.50854e-10
-4.29774e-07
-3.07711e-09
-5.49795e-07
2.13099e-10
-4.46706e-07
-4.70784e-07
5.41065e-10
-1.39002e-09
1.21363e-09
-5.52367e-07
1.67101e-09
-4.50643e-07
-4.79177e-07
-2.20031e-07
-9.90404e-10
-2.00986e-09
6.84498e-10
-1.31006e-09
-2.19406e-07
-1.28306e-09
-4.46824e-07
-2.25608e-09
-5.49814e-07
-4.70528e-07
-4.03651e-10
-1.38187e-09
3.52693e-11
-4.50944e-07
1.96109e-09
-5.52999e-07
-4.79544e-07
-1.57816e-09
-3.94022e-07
-2.23669e-09
-1.75334e-07
-5.36162e-07
-1.59962e-09
-1.03904e-09
-3.95468e-07
-8.43606e-10
-7.12773e-10
-1.73778e-07
-4.97028e-10
-5.40856e-07
-1.85496e-10
-4.64216e-07
-5.61505e-09
-3.45773e-07
5.36377e-10
-4.70626e-07
8.70151e-10
-2.86039e-09
1.7669e-10
4.68227e-10
-4.69789e-07
-2.82573e-09
-3.43213e-07
4.42298e-10
-4.75644e-07
7.72503e-10
-2.1824e-07
-4.44892e-10
-5.66049e-10
3.48777e-10
-1.76701e-09
-2.16822e-07
-1.51947e-09
-1.72638e-07
-3.79763e-10
8.19592e-10
-3.9445e-07
-5.4488e-07
2.21878e-10
8.64364e-10
-1.81085e-09
-1.69234e-07
-1.5931e-09
4.74087e-10
-3.92817e-07
-1.75874e-09
-5.44782e-07
-1.37349e-09
-6.09725e-11
-5.3614e-10
-1.73459e-07
5.77715e-10
-1.73451e-07
-4.30053e-07
9.38447e-10
-6.18098e-10
-4.01831e-10
7.26763e-10
-1.73784e-07
5.59078e-10
-3.5216e-10
-1.73658e-07
1.42268e-09
2.79311e-10
-4.31598e-07
8.92944e-10
-5.53507e-07
2.45901e-09
-4.52998e-07
-4.82944e-07
3.56955e-09
3.54901e-09
1.49303e-09
1.96158e-10
3.51315e-10
-5.55453e-07
1.32067e-09
1.93947e-09
-4.54831e-07
1.51151e-09
-4.85107e-07
2.44558e-09
2.00848e-09
-2.18676e-07
-4.08183e-11
-6.88534e-10
-3.64522e-10
-8.9803e-10
-2.17414e-07
5.54836e-10
-4.53394e-07
1.50192e-09
-5.5466e-07
-4.83436e-07
4.49366e-09
1.45468e-09
1.10562e-09
-5.93898e-10
5.73301e-10
-4.55451e-07
2.86847e-09
1.13293e-09
-5.56787e-07
3.58329e-11
-4.86114e-07
3.25578e-09
1.12881e-09
2.29113e-10
-3.9483e-07
-9.72217e-10
-1.7179e-07
-5.42181e-07
-5.95392e-11
6.41133e-10
-1.75632e-09
-3.93065e-07
-9.07035e-10
-5.95824e-10
-2.46872e-09
-1.68726e-07
-2.03337e-09
-5.41781e-07
-7.18499e-10
7.0727e-10
-4.73062e-07
-2.17287e-09
-3.41401e-07
3.17095e-10
-4.78083e-07
5.52842e-10
4.20856e-10
-2.7165e-09
-7.98501e-10
-1.21137e-10
-4.77245e-07
-4.46287e-10
-2.19815e-09
-3.40362e-07
3.60169e-10
-4.81068e-07
2.06513e-11
6.45098e-10
-2.17596e-07
1.15191e-09
-3.78011e-10
1.67462e-09
-2.07026e-09
-2.172e-07
-1.57372e-09
-1.67063e-07
-5.97676e-10
2.359e-09
-3.92888e-07
-5.45101e-07
6.18946e-11
1.0424e-09
4.27019e-10
-1.67945e-07
4.54898e-10
1.93014e-09
-3.92252e-07
-8.9139e-10
-5.44376e-07
6.42958e-10
9.89084e-10
7.92969e-10
-1.75526e-07
1.59473e-09
-1.74992e-07
-4.34887e-07
3.66045e-09
2.0164e-09
-3.35306e-10
1.84951e-09
-1.7704e-07
9.46967e-10
4.64644e-10
-1.76404e-07
2.79087e-09
1.55714e-09
-4.38623e-07
2.90894e-09
-5.58894e-07
5.1773e-09
-4.57229e-07
-4.8761e-07
5.53373e-09
5.05537e-09
3.57746e-09
6.58795e-10
8.40482e-10
-5.61927e-07
3.69976e-09
3.91207e-09
-4.60725e-07
3.03392e-09
-4.91385e-07
4.90182e-09
3.62611e-09
-2.17364e-07
7.51564e-11
-1.24647e-10
2.75273e-10
-3.84532e-10
-2.17255e-07
3.05877e-09
-4.58248e-07
3.15257e-09
-5.6021e-07
-4.89299e-07
6.01452e-09
3.38203e-09
1.78933e-09
7.80908e-10
2.27158e-09
-4.61391e-07
4.21835e-09
2.12271e-09
-5.62126e-07
8.49532e-10
-4.92488e-07
4.85872e-09
2.72374e-09
1.52867e-10
-3.93124e-07
1.84736e-09
-1.7013e-07
-5.43111e-07
2.9394e-10
3.0362e-09
-1.22014e-09
-3.9402e-07
1.73232e-09
2.24227e-09
1.08165e-10
-1.72481e-07
-2.91214e-10
-5.45583e-07
3.78507e-09
6.28556e-10
-4.7918e-07
1.87085e-09
-3.42239e-07
1.56713e-11
-4.82973e-07
4.09242e-09
3.11808e-10
3.04947e-09
1.38946e-10
2.86828e-10
-4.81629e-07
4.92026e-09
2.73905e-09
-3.45021e-07
1.81965e-10
-4.85503e-07
5.06737e-09
4.88524e-10
-2.17961e-07
1.20237e-09
-4.41793e-10
1.43496e-09
6.44202e-11
-2.1946e-07
8.89656e-10
-1.70018e-07
1.18363e-09
2.57609e-09
-3.9316e-07
-5.45276e-07
2.08482e-09
2.28096e-09
1.23401e-09
-1.72476e-07
1.22413e-09
1.97257e-09
-3.95402e-07
1.70429e-09
-5.48463e-07
3.69018e-09
2.70285e-09
4.16418e-10
-1.78821e-07
2.29852e-09
-1.78784e-07
-4.42164e-07
3.92177e-09
2.33416e-09
9.08727e-10
1.95654e-09
-1.81686e-07
2.30678e-09
7.07249e-10
-1.81798e-07
3.91601e-09
2.54639e-09
-4.45411e-07
1.02338e-09
-5.63489e-07
5.13553e-09
-4.63443e-07
-4.94968e-07
5.70081e-09
4.04087e-09
2.62736e-09
2.53084e-09
2.16523e-09
-5.66384e-07
3.42193e-09
3.91813e-09
-4.64084e-07
3.16958e-09
-4.96719e-07
4.87442e-09
2.95951e-09
-2.18315e-07
1.2293e-09
-1.69096e-10
1.93334e-09
-1.39351e-10
-2.20109e-07
3.28125e-09
-4.63239e-07
2.94219e-09
-5.64049e-07
-4.94665e-07
5.18167e-09
3.21954e-09
4.13895e-09
-1.4678e-10
2.10145e-09
-4.63333e-07
4.67805e-09
4.20065e-09
-5.67393e-07
9.29389e-10
-4.95367e-07
4.75676e-09
2.24662e-09
3.76814e-10
-3.96259e-07
2.013e-09
-1.75011e-07
-5.48278e-07
7.91245e-10
4.29357e-09
6.9174e-11
-4.00108e-07
3.63997e-09
2.62964e-09
6.93389e-10
-1.78334e-07
1.11689e-09
-5.51812e-07
5.11611e-09
6.54268e-10
-4.83488e-07
2.52256e-09
-3.47579e-07
3.4677e-10
-4.87994e-07
5.20127e-09
4.65938e-10
3.96433e-09
2.61699e-10
4.53917e-10
-4.84162e-07
5.30123e-09
3.29189e-09
-3.51624e-07
1.01486e-09
-4.89774e-07
5.02642e-09
4.99701e-10
-2.21729e-07
1.33628e-09
9.32895e-10
1.82143e-09
1.04611e-09
-2.24597e-07
1.17201e-09
-1.75276e-07
1.62737e-09
2.75844e-09
-3.98809e-07
-5.52158e-07
4.20672e-09
3.4192e-09
1.85864e-09
-1.78815e-07
1.68059e-09
2.60325e-09
-4.02874e-07
3.28339e-09
-5.55899e-07
4.79368e-09
3.40858e-09
9.8589e-10
-1.83748e-07
1.9539e-09
-1.83785e-07
-4.47944e-07
3.58888e-09
1.88369e-09
-5.16047e-10
5.94785e-10
-1.83826e-07
6.44079e-10
-2.1833e-10
-1.84211e-07
1.34124e-09
1.14375e-10
-4.49271e-07
2.14423e-09
-5.68464e-07
4.42498e-09
-4.64865e-07
-4.97344e-07
5.06807e-09
2.12613e-09
2.09454e-09
1.21533e-09
3.36889e-09
-5.72558e-07
3.86488e-09
3.10659e-09
-4.66493e-07
1.07793e-09
-4.97683e-07
4.98084e-09
1.83431e-09
-2.23243e-07
2.42187e-09
7.11771e-10
2.46133e-09
6.99398e-10
-2.26403e-07
2.1884e-09
-4.64645e-07
2.81222e-09
-5.69037e-07
-4.97118e-07
4.40784e-09
2.34399e-09
7.96993e-10
2.01528e-10
8.77967e-10
-4.67143e-07
2.53123e-09
2.40191e-09
-5.70847e-07
2.07057e-09
-4.9939e-07
3.24764e-09
2.30408e-09
9.87928e-10
-4.03927e-07
2.99036e-09
-1.82477e-07
-5.55052e-07
1.93155e-09
5.28726e-09
7.74362e-10
-4.08742e-07
4.74008e-09
2.35236e-09
8.01112e-10
-1.8563e-07
1.34311e-09
-5.57975e-07
4.70664e-09
5.1362e-10
-4.83541e-07
4.43188e-09
-3.55533e-07
-1.7929e-10
-4.90547e-07
5.43572e-09
2.82656e-10
3.50053e-09
3.81228e-10
1.00599e-09
-4.83319e-07
3.61566e-09
4.53924e-09
-3.60228e-07
5.3703e-10
-4.90466e-07
4.61111e-09
8.52978e-10
-2.25857e-07
1.15901e-09
1.00849e-10
1.91776e-09
7.88106e-10
-2.28563e-07
1.74438e-09
-1.82827e-07
2.26793e-09
3.11572e-09
-4.06126e-07
-5.58836e-07
3.83539e-09
3.96195e-09
1.32286e-09
-1.85919e-07
1.769e-09
3.12661e-09
-4.10365e-07
3.03032e-09
-5.60324e-07
2.80899e-09
3.12884e-09
1.66324e-10
-1.8451e-07
7.86151e-10
-1.84046e-07
-4.4952e-07
1.7185e-09
-5.1711e-10
-7.09143e-10
7.49064e-10
-1.8455e-07
9.09256e-10
-3.61773e-10
-1.84594e-07
-1.30399e-10
-1.4567e-09
-4.47733e-07
2.78137e-09
-5.7579e-07
3.37299e-09
-4.67027e-07
-4.98328e-07
4.28475e-09
2.51408e-09
1.35074e-09
-4.62883e-10
-8.28061e-11
-5.76136e-07
2.5684e-09
6.89235e-10
-4.67059e-07
-1.25054e-09
-5.00221e-07
2.18193e-09
3.17858e-10
-2.2821e-07
1.63676e-09
1.69617e-10
7.46859e-10
-4.20268e-10
-2.28536e-07
1.00283e-09
-4.6869e-07
3.3369e-09
-5.73657e-07
-5.00733e-07
3.22838e-09
2.45506e-09
2.03975e-09
-2.32872e-10
9.68071e-12
-4.68687e-07
5.70387e-10
2.94111e-09
-5.76467e-07
3.82885e-10
-5.01209e-07
2.32956e-09
1.09666e-09
1.08689e-09
-4.1203e-07
-6.94787e-12
-1.85622e-07
-5.60181e-07
6.84374e-10
2.60123e-09
-3.80919e-10
-4.12543e-07
4.73752e-10
4.36951e-10
-2.47508e-10
-1.85811e-07
7.74653e-11
-5.60738e-07
5.35359e-10
9.46514e-10
-4.84033e-07
3.21102e-09
-3.63735e-07
5.90721e-10
-4.89538e-07
2.65999e-09
5.69748e-10
6.70318e-11
4.99494e-11
1.73195e-10
-4.84311e-07
2.49095e-10
1.37001e-10
-3.64204e-07
3.81231e-10
-4.90124e-07
4.978e-10
3.98542e-10
-2.31049e-07
1.51704e-09
9.68991e-10
7.79992e-10
-8.46792e-10
-2.30982e-07
-1.1689e-09
-1.85677e-07
9.26973e-10
2.59226e-09
-4.13284e-07
-5.61151e-07
2.45881e-10
2.00466e-09
-5.13669e-10
-1.85675e-07
5.11617e-10
1.62265e-09
-4.13181e-07
-9.45381e-10
-5.6098e-07
-4.2724e-10
1.36512e-09
-6.69265e-10
-1.8432e-07
5.21839e-10
-1.84309e-07
-4.46567e-07
1.92006e-10
-1.50584e-09
-7.47154e-10
5.63588e-10
-1.84137e-07
4.85394e-10
-6.76636e-10
-1.84117e-07
5.59017e-10
-8.73299e-10
-4.46514e-07
1.31767e-10
-5.76312e-07
1.21037e-09
-4.67474e-07
-5.00274e-07
1.85854e-09
-4.63295e-10
1.52743e-09
-7.9821e-10
-4.9198e-10
-5.76547e-07
1.40685e-09
1.54362e-09
-4.6866e-07
-5.97547e-10
-5.00827e-07
2.18189e-09
-5.77953e-10
-2.31027e-07
2.29429e-09
1.96289e-10
5.60428e-10
-6.55316e-10
-2.30932e-07
-9.91462e-10
-4.69059e-07
7.22528e-10
-5.7636e-07
-5.01649e-07
3.49341e-10
-1.77735e-10
1.76898e-10
-8.59704e-10
-4.89156e-10
-4.6976e-07
4.93647e-10
6.19566e-10
-5.76338e-07
-9.40379e-10
-5.01463e-07
6.41875e-10
-6.97671e-10
-6.40037e-11
-4.13301e-07
4.06927e-11
-1.85736e-07
-5.60464e-07
2.04771e-10
-5.01468e-10
-6.58541e-10
-4.13258e-07
-3.94882e-11
2.16726e-10
-3.94774e-10
-1.85558e-07
-5.04448e-10
-5.60484e-07
8.24828e-11
5.82804e-10
-4.84329e-07
-1.70848e-10
-3.64308e-07
4.52942e-10
-4.89955e-07
-4.31823e-10
6.74665e-10
-4.51535e-10
5.10049e-11
2.49285e-10
-4.84952e-07
-5.81954e-10
-3.56475e-10
-3.64293e-07
3.9242e-10
-4.90366e-07
-2.61802e-10
5.65567e-10
-2.31451e-07
1.01845e-09
-5.48803e-10
7.6401e-10
-8.40658e-11
-2.32131e-07
-6.35487e-10
-1.85847e-07
8.07335e-10
1.71437e-09
-4.13987e-07
-5.62224e-07
7.86355e-10
1.53637e-09
-4.46717e-10
-1.86219e-07
8.19132e-10
1.42623e-09
-4.15555e-07
9.06333e-10
-5.6501e-07
1.66583e-09
2.0994e-09
-4.36858e-10
-1.84376e-07
6.94601e-10
-1.84355e-07
-4.47446e-07
1.26808e-09
-7.84128e-11
-1.2536e-10
6.24239e-10
-1.84875e-07
7.33672e-10
-1.96778e-10
-1.84892e-07
1.86237e-09
1.04997e-09
-4.4975e-07
1.14205e-09
-5.78748e-07
1.73241e-09
-4.70103e-07
-5.01949e-07
2.78092e-09
1.21609e-09
1.223e-09
6.02325e-10
2.41663e-09
-5.81288e-07
1.26304e-09
2.4176e-09
-4.72557e-07
2.50132e-09
-5.03183e-07
2.88028e-09
3.18824e-09
-2.31377e-07
7.19262e-10
-2.74302e-10
6.45416e-10
6.5665e-11
-2.32088e-07
-1.99465e-10
-4.70996e-07
2.30841e-09
-5.78569e-07
-5.02216e-07
2.61777e-09
2.44481e-10
1.13464e-09
-7.88724e-11
1.38324e-09
-4.73692e-07
3.49777e-09
2.76955e-09
-5.81619e-07
8.47119e-10
-5.03901e-07
4.10457e-09
1.7326e-09
-2.48529e-10
-4.14041e-07
2.50071e-10
-1.85682e-07
-5.61705e-07
-8.39603e-11
1.30598e-09
3.63628e-10
-4.15297e-07
9.58709e-10
2.99427e-10
-3.29427e-11
-1.85949e-07
9.86445e-10
-5.63626e-07
1.59782e-09
-3.40792e-11
-4.85814e-07
-3.24738e-10
-3.64295e-07
3.96662e-10
-4.91215e-07
3.22584e-11
4.58424e-10
-9.72933e-11
1.79084e-10
7.66223e-10
-4.86309e-07
6.18111e-10
-2.77131e-11
-3.64425e-07
3.36434e-10
-4.91053e-07
-1.15248e-10
6.91186e-10
6.48806e-10
-8.31487e-10
-2.31949e-07
-9.59372e-10
-1.86016e-07
7.56291e-10
1.12889e-09
-4.1521e-07
-1.13591e-09
-5.65161e-07
1.4562e-09
-7.53793e-10
-1.84695e-07
1.88361e-11
-1.84705e-07
2.10891e-10
-4.21746e-10
-4.50274e-07
-6.37592e-10
-5.81225e-07
3.37072e-10
-4.73301e-07
4.83705e-10
-1.89132e-09
-5.02076e-07
1.80691e-10
-4.52257e-10
-2.31817e-07
-7.82693e-10
-4.73842e-07
2.77084e-10
-5.81406e-07
-6.40908e-10
-1.39303e-09
-5.02372e-07
-4.27249e-10
-4.15034e-07
-1.57942e-10
-1.85706e-07
-3.0754e-10
-6.27021e-10
-5.63277e-07
-1.05177e-09
-4.84802e-07
-8.90247e-10
-3.64049e-07
3.03781e-10
-2.39315e-09
-4.90688e-07
8.62017e-11
2.69269e-09
-4.93132e-07
3.95713e-10
3.62801e-09
-4.87787e-07
-4.89995e-07
5.7799e-09
3.05855e-09
1.47041e-09
2.17893e-09
2.28053e-09
-4.97753e-07
2.43708e-09
2.68189e-09
3.73158e-09
-4.89576e-07
4.55412e-09
-4.92714e-07
3.1274e-09
4.10993e-09
-4.79475e-07
5.55762e-09
-4.79966e-07
-4.81858e-07
6.70609e-09
4.71243e-09
4.19714e-09
2.23335e-09
2.86394e-09
4.29432e-09
-4.80427e-07
4.73669e-09
2.0159e-09
-4.8123e-07
5.50652e-09
2.60024e-09
-4.82364e-07
8.15744e-09
-4.82824e-07
-1.67613e-11
6.7012e-09
-4.79758e-07
-4.79391e-07
1.10959e-08
5.28381e-09
3.94998e-09
5.91132e-09
7.46613e-09
-4.8499e-07
3.20389e-09
5.45167e-09
7.22408e-09
-4.81016e-07
8.61562e-09
-4.79982e-07
4.89304e-09
1.54727e-09
-4.89314e-07
2.27357e-09
-4.93857e-07
-4.91793e-07
5.25537e-09
9.52277e-10
1.98159e-09
6.66285e-10
1.68201e-09
4.68463e-09
-4.9257e-07
1.5935e-09
8.70288e-10
-4.96373e-07
4.17646e-09
1.54189e-09
-4.94236e-07
4.0866e-09
-4.80127e-07
9.26126e-09
-4.84463e-07
-4.79991e-07
1.36893e-08
1.63085e-09
7.85266e-09
1.52749e-09
1.80747e-09
1.00292e-08
-4.81511e-07
8.47634e-09
7.93457e-12
-4.87244e-07
1.10115e-08
1.50855e-10
-4.80869e-07
1.49175e-08
-4.68353e-07
4.27983e-09
2.0441e-08
-4.684e-07
-4.39592e-07
9.58555e-09
2.18409e-08
1.17572e-08
7.03806e-09
8.26424e-09
-4.68901e-07
1.26566e-08
1.31327e-08
5.10413e-09
-4.68587e-07
2.36319e-09
-4.37798e-07
1.72398e-08
1.37024e-09
-4.8707e-07
1.09395e-09
-4.80767e-07
6.89722e-10
-4.81764e-07
4.27653e-09
1.04974e-09
2.04329e-09
7.77432e-10
1.04186e-09
4.58535e-09
-4.89112e-07
2.11535e-09
-4.82664e-07
5.79258e-10
4.52823e-09
-4.83891e-07
7.5592e-10
2.23777e-09
-4.72783e-07
4.31171e-09
-4.7513e-07
1.59524e-09
-4.61711e-07
7.27516e-09
1.51542e-09
8.22129e-09
-7.90683e-11
4.5582e-10
1.05574e-08
-4.75424e-07
7.10793e-09
-4.79078e-07
1.28942e-09
7.72314e-09
-4.63669e-07
1.79804e-09
7.82907e-09
-3.2278e-07
9.87774e-09
1.19636e-08
-4.03395e-07
5.0063e-09
-1.75094e-07
-2.57872e-08
6.00598e-09
5.57942e-09
3.32835e-09
-4.80016e-09
-3.16302e-07
6.26472e-09
3.48304e-09
-3.98898e-07
3.07155e-09
-1.86167e-07
6.44265e-09
3.31242e-09
3.42322e-09
-5.00485e-07
2.06605e-09
5.40078e-09
-4.91627e-07
-4.94463e-07
6.18431e-09
4.38847e-09
3.43126e-09
2.24537e-09
2.93684e-09
-5.02254e-07
2.90671e-09
5.46553e-09
5.73084e-09
-4.95676e-07
6.48602e-09
-4.98319e-07
5.77202e-09
6.25597e-09
-4.82369e-07
7.9143e-09
-4.83258e-07
-4.83266e-07
8.83082e-09
6.24121e-09
6.00691e-09
4.12062e-09
5.2363e-09
6.94087e-09
-4.84914e-07
7.11026e-09
4.47913e-09
-4.85868e-07
8.62017e-09
5.8274e-09
-4.85367e-07
9.99405e-09
-4.86793e-07
2.8325e-09
8.45449e-09
-4.81231e-07
-4.7977e-07
1.19084e-08
6.32796e-09
6.90792e-09
8.54879e-09
1.08333e-08
-4.90198e-07
5.96503e-09
8.73524e-09
1.0352e-08
-4.8315e-07
1.37086e-08
-4.81911e-07
8.00148e-09
3.09621e-09
-4.94847e-07
5.18142e-09
-4.9807e-07
-4.95496e-07
7.57847e-09
1.95922e-09
3.88366e-09
3.04482e-10
2.55772e-09
6.87306e-09
-4.97671e-07
5.59554e-09
2.56536e-10
-4.99832e-07
7.88208e-09
2.39392e-09
-4.97619e-07
4.75704e-09
-4.8182e-07
1.07759e-08
-4.88429e-07
-4.80951e-07
1.41168e-08
1.49731e-09
1.01787e-08
3.94034e-09
5.43986e-09
1.31186e-08
-4.84372e-07
1.12559e-08
2.27939e-09
-4.90142e-07
1.59024e-08
3.80631e-09
-4.83964e-07
1.19883e-08
-4.68448e-07
9.81094e-09
1.74024e-08
-4.68369e-07
-4.34399e-07
7.54982e-09
1.84418e-08
1.49731e-08
9.94026e-09
1.42439e-08
-4.68453e-07
1.44432e-08
1.93991e-08
6.91862e-09
-4.68844e-07
8.17987e-09
-4.32176e-07
2.32403e-08
1.59645e-09
-4.89703e-07
4.95212e-09
-4.83915e-07
7.39377e-10
-4.84385e-07
5.76745e-09
1.27541e-09
6.96224e-09
6.59062e-10
1.84266e-09
8.52892e-09
-4.90718e-07
7.26276e-09
-4.85968e-07
5.16025e-10
8.71671e-09
-4.84686e-07
6.89671e-10
1.15448e-09
-4.7823e-07
6.7331e-09
-4.81806e-07
1.60621e-09
-4.66521e-07
9.07372e-09
1.66664e-09
9.09633e-09
9.09e-10
1.56194e-09
1.38047e-08
-4.80694e-07
8.32601e-09
-4.81637e-07
1.13083e-09
1.23829e-08
-4.70751e-07
1.73433e-09
2.41806e-09
-3.0749e-07
1.83385e-08
1.07676e-08
-4.02225e-07
3.22933e-09
-1.67754e-07
-1.00129e-08
4.78626e-09
1.55792e-08
4.5833e-09
1.58728e-09
-2.99179e-07
1.38607e-08
1.3762e-08
-4.02268e-07
3.24701e-09
-1.54902e-07
-1.81627e-09
4.3135e-09
3.12446e-09
-5.02121e-07
1.76336e-09
5.89253e-09
-4.99254e-07
-5.00611e-07
6.45032e-09
4.85898e-09
3.26618e-09
3.13382e-09
4.88016e-09
-5.03189e-07
3.14482e-09
5.32864e-09
4.56031e-09
-5.01135e-07
6.47807e-09
-5.01855e-07
4.97482e-09
6.36793e-09
-4.88292e-07
7.87157e-09
-4.88957e-07
-4.88085e-07
9.73093e-09
7.22684e-09
5.45948e-09
3.62819e-09
4.94882e-09
6.7263e-09
-4.91548e-07
6.76843e-09
3.87262e-09
-4.91213e-07
9.09304e-09
6.13226e-09
-4.91593e-07
1.1518e-08
-4.94038e-07
4.82182e-09
1.00888e-08
-4.86052e-07
-4.85452e-07
1.6175e-08
8.97248e-09
7.01848e-09
8.33217e-09
1.14401e-08
-4.97829e-07
5.84736e-09
9.64898e-09
1.17793e-08
-4.90055e-07
1.65867e-08
-4.9001e-07
9.06009e-09
3.30199e-09
-5.0012e-07
5.61613e-09
-5.00637e-07
-4.99644e-07
8.38511e-09
2.55822e-09
5.13585e-09
1.36322e-09
2.34168e-09
6.29434e-09
-5.01373e-07
6.38232e-09
9.44906e-10
-5.01485e-07
8.37087e-09
2.0218e-09
-5.01313e-07
6.87987e-09
-4.8755e-07
1.30767e-08
-4.93659e-07
-4.87063e-07
1.83309e-08
4.72547e-09
1.0143e-08
3.27169e-09
5.80929e-09
1.4089e-08
-4.91173e-07
1.35978e-08
1.72794e-09
-4.97343e-07
1.83583e-08
4.53248e-09
-4.90547e-07
1.79551e-08
-4.70936e-07
1.4925e-08
2.25168e-08
-4.71273e-07
-4.29282e-07
1.39713e-08
2.36061e-08
1.70131e-08
1.23732e-08
2.02281e-08
-4.7463e-07
1.70659e-08
2.49001e-08
1.00207e-08
-4.75462e-07
1.50047e-08
-4.2858e-07
2.94212e-08
2.52591e-09
-4.93272e-07
7.5609e-09
-4.88628e-07
7.64991e-10
-4.85988e-07
1.00609e-08
1.32745e-09
7.12568e-09
5.2348e-10
1.84897e-09
1.00154e-08
-4.95989e-07
7.74618e-09
-4.91337e-07
5.12733e-10
1.16357e-08
-4.88895e-07
8.6715e-10
2.07576e-09
-4.83727e-07
1.18643e-08
-4.8357e-07
1.52988e-09
-4.7454e-07
1.60049e-08
1.72416e-09
1.32124e-08
1.33524e-09
2.35352e-09
1.73104e-08
-4.85646e-07
1.429e-08
-4.86136e-07
1.24723e-09
1.91227e-08
-4.78287e-07
1.26789e-09
4.97835e-09
-2.84699e-07
2.15304e-08
1.90104e-08
-4.03059e-07
3.3019e-09
-1.35226e-07
2.34925e-10
4.07739e-09
2.41953e-08
6.18198e-09
4.84109e-09
-2.69782e-07
1.94416e-08
2.36555e-08
-4.03997e-07
2.5866e-09
-1.14177e-07
3.19028e-09
4.25737e-09
5.92672e-09
-5.04765e-07
2.98422e-09
5.4173e-09
-5.01374e-07
-5.02438e-07
6.90135e-09
5.02564e-09
3.62864e-09
4.7239e-09
6.01497e-09
-5.06015e-07
3.65678e-09
5.13243e-09
4.63463e-09
-5.01436e-07
7.45138e-09
-5.03698e-07
4.95546e-09
4.09789e-09
-4.94593e-07
6.17749e-09
-4.93509e-07
-4.96052e-07
8.81543e-09
5.91877e-09
4.172e-09
1.88546e-09
2.01986e-09
5.9168e-09
-4.96524e-07
5.32157e-09
2.78948e-09
-4.96487e-07
7.56732e-09
4.07261e-09
-5.0035e-07
1.05491e-08
-5.0079e-07
4.75312e-09
9.72795e-09
-4.95883e-07
-4.95738e-07
1.68976e-08
9.10775e-09
6.29805e-09
4.88269e-09
9.35124e-09
-5.01661e-07
5.26899e-09
9.1082e-09
9.6378e-09
-5.02179e-07
1.47205e-08
-5.01997e-07
9.99835e-09
2.52227e-09
-5.03024e-07
6.63359e-09
-5.02333e-07
-5.02614e-07
8.64363e-09
1.81345e-09
5.12854e-09
2.14175e-09
2.51892e-09
5.67351e-09
-5.03784e-07
5.972e-09
9.72295e-10
-5.02429e-07
7.59184e-09
9.50651e-10