/*--------------------------------*- C++ -*----------------------------------*\
| =========                 |                                                 |
| \\      /  F ield         | OpenFOAM: The Open Source CFD Toolbox           |
|  \\    /   O peration     | Version:  2.2.1                                 |
|   \\  /    A nd           | Web:      www.OpenFOAM.org                      |
|    \\/     M anipulation  |                                                 |
\*---------------------------------------------------------------------------*/
FoamFile
{
    version     2.0;
    format      ascii;
    class       volScalarField;
    location    "14.66426";
    object      T;
}
// * * * * * * * * * * * * * * * * * * * * * * * * * * * * * * * * * * * * * //

dimensions      [0 0 0 1 0 0 0];

internalField   nonuniform List<scalar> 
25373
(
300
300
300
300
300.001
300
300.001
300.204
300
300
300.051
303.341
300
300
300
300
300.001
300
300.001
300.206
300
300
300.043
303.316
300
300
300
300
300
300
300
300.003
300
300
299.998
299.558
300
300
300
300
300
300
300
300.003
300
300
300.001
300.687
300
300
300
300
300
300
300
300.003
300
300
300.001
300.788
300
300
300
300
300
300
300
300.003
300
300
300.001
300.975
300
300
300
300
300
300
300
300.003
300
300
300.001
301.247
300
300
300
300
300
300
300
300.002
300
300
300
301.448
300
300
300
300
300
300
300
300.001
300
300
300
301.26
300
300
300
300
300
300
300
300
300
300
300
300.044
300
300
300
300
300
300
300
300
300
300
300
300
300
300
300
300
300
300
300
300
300
300
300
300
300
300
300
300
300
300
300
300
300
300
300
300
300
300
300
300
300
300
300
300
300
300
300
300
300
300
300
300
300
300
300
300
300
300
300
300
300
300
300
300
300
300
300
300
300
300
300
300
300
300
300
300
300
300
300
300
300
300
300
300
300
300
300
300
300
300
300
300
300
300
300
300
300
300
300
300
300
300
300
300
300
300
300
300
300
300
300
300
300
300
300
300
300
300
300
300
300
300
300
300
300
300
300
300
300
300
300
300
300
300
300
300
300
300
300
300
300
300
300
300
300
300
300
300
300
300
300
300
300
300
300
300
300
300
300
300
300
300
300
300
300
300
300
300
300
300
300
300
300
300
300
300
300
300
300
300
300
300
300
300
300
300
300
300
300
300
300
300
300
300
300
300
300
300
300
300
300
300
300
300
300
300
300
300
300
300
300
300
300
300
300
300
300
300
300
300
300
300
300
300
300
300
300
300
300
300
300
300
300
300
300
300
300
300
300
300
300
300
300
300
300
300
300
300
300
300
300
300
300
300
300
300
300
300
300
300
300
300
300
300
300
300
300
300
300
300
300
300
300
300
300
300
300
300
300
300
300
300
300
300
300
300
300
300
300
300
300
300
300
300
300
300
300
300
300
300
300
300
300
300
300
300
300
300
300
300
300
300
300
300
300
300
300
300
300
300
300
300
300
300
300
300
300
300
300
300
300
300
300
300
300
300
300
300
300
300
300
300
300
300
300
300
300
300
300
300
300
300
300
300
300
300
300
300
300
300
300
300
300
300
300
300
300
300
300
300
300
300
300
300
300
300
300
300
300
300
300
300
300
300
300
300
300
300
300
300
300
300
300
300
300
300
300
300
300
300
300
300
300
300
300
300
300
300
300
300
300
300
300
300
300
300
300
300
300
300
300
300
300
300.003
300
300
300
300.002
300
300
300
300
300
300
300
300
300
300.003
300
300
300
300.002
299.993
299.986
301.055
300.003
300.064
300.062
300.918
300
300
300
300
300
300
300
300.03
299.986
300.191
300.001
300.036
300.004
300.145
305.173
301.895
311.085
300.674
305.788
302.464
308.454
300
300
300
300
300
300
300
300
300
300
300
300
300
300
300
300
300.002
300
300
300
300.002
300
300
300
300
300
300
300
300
300
300.002
300
300
300
300.002
300.065
300.063
301.036
300.003
300.069
300.067
301.126
300
300
300
300
300
300
300
300.036
300.004
300.144
300.001
300.036
300.004
300.144
305.856
302.505
308.655
300.751
306.667
302.693
308.696
300
300
300
300
300
300
300
300
300
300
300
300
300
300
300
300
300.002
300
300
300
300.002
300
300
300
300
300
300
300
300
300
300.002
300
300
300
300.002
300.073
300.071
301.313
300.003
300.081
300.078
301.516
300
300
300
300
300
300
300
300.036
300.004
300.145
300.001
300.038
300.004
300.148
306.991
302.86
309.288
300.918
308.303
303.189
309.868
300
300
300
300
300
300
300
300
300
300
300
300
300
300
300
300
300.002
300
300
300
300.002
300
300
300
300
300
300
300
300
300
300.002
300
300
300
300.002
300.092
300.081
301.83
300.003
300.098
300.088
302.257
300
300
300
300
300
300
300
300.037
300.003
300.15
300.001
300.039
300.003
300.153
308.929
303.528
310.976
301.161
310.934
303.926
312.117
300
300
300
300
300
300
300
300
300
300
300
300
300
300
300
300
300.002
300
300
300
300.002
300
300
300
300
300
300
300
300
300
300.002
300
300
300
300.002
300.102
300.091
302.745
300.002
300.103
300.092
303.222
300
300
300
300
300
300
300
300.039
300.003
300.155
300
300.038
300.003
300.151
311.966
304.387
314.104
301.402
314.324
304.795
316.487
300
300
300
300
300
300
300
300
300
300
300
300
300
300
300
300
300.001
300
300
300
300.001
300
300
300
300
300
300
300
300
300
300.001
300
300
300
300.001
300.1
300.087
303.546
300.002
300.097
300.08
303.716
300
300
300
300
300
300
300
300.035
300.002
300.142
300
300.031
300.001
300.125
315.407
305.02
318.981
301.437
316.204
305.04
319.843
300
300
300
300
300
300
300
300
300
300
300
300
300
300
300
300
300.001
300
300
300
300
300
300
300
300
300
300
300
300
300
300.001
300
300
300
300
300.086
300.064
303.759
300
300.023
300.024
309.748
300
300
300
300
300
300
300
300.014
300
300.064
300
300
300
299.992
323.594
304.603
314.556
300.046
335.292
300.484
334.549
300
300
300
300
300
300
300
300
300
300
300
300
300
300
300
300
300
300.415
300
300
300
300.001
300
300
300.24
331.421
316.143
335.327
316.04
334.683
330.341
356.646
306.545
326.913
315.259
301.166
300.96
300.172
306.395
300.15
304.768
300.1
309.755
327.048
325.345
329.562
300
300
300
300
300
300
300
300
300
300
300
300
300
300
300
300
300
300
300
300
300
300
300
300
300
300
300
300
300
300
300
300
300
300
300
300
300
300
300
300
300
300
300
300
300.037
301.319
300.397
300.425
300.813
300.008
300.165
300.005
340.884
329.66
300.806
300.68
300.13
300.08
309.406
325.795
300.244
300.018
301.464
300.025
300.378
300.074
301.555
322.086
332.762
306.918
307.268
320.029
321.78
321.365
319.664
333.434
334.574
319.439
333.576
321.789
300.399
300.048
309.432
300.564
300.562
300.067
349.45
348.946
320.194
330.264
327.345
320.012
329.671
336.32
307.927
319.017
335.817
317.39
308.788
346.849
348.557
345.454
361.498
346.514
354.272
354.276
340.868
365.018
322.929
351.793
334.291
335.52
369.399
328.051
347.925
336.284
338.996
345.404
353.776
358.792
351.407
330.939
331.568
353.925
333.805
356.082
362.216
328.686
346.612
334.81
356.331
348.781
336.899
332.314
334.881
336.358
309.005
300.709
324.048
304.881
331.04
305.3
312.642
331.611
314.191
306.179
339.962
330.431
304.83
313.605
302.671
315.608
300.661
305.136
302.372
301.184
306.45
304.351
301.128
303.812
300.601
307.173
301.231
301.576
309.461
301.564
312.563
313.107
301.242
330.19
328.971
324.473
339.072
327.735
300
300
300
300
300
300
300
300
300
322.529
309.239
303.343
326.256
300.387
317.582
302.873
311.389
300.355
302.641
316.394
300.779
304.074
300.431
306.973
300.942
307.09
308.427
300.732
339.815
319.36
337.93
323.69
300.101
314.393
300.881
300.875
299.725
299.821
300.102
324.704
314.103
321.294
314.593
323.561
314.762
322.64
308.502
298.814
300.354
306.817
299.1
305.331
310.563
335.383
317.746
305.351
347.213
309.561
334.627
343.638
305.569
317.555
303.738
319.868
299.824
303.032
306.067
301.522
307.514
305.874
300.533
307.265
299.943
310.914
301.556
301.978
310.046
300.595
313.258
313.942
299.849
301.558
300.236
299.971
299.921
301.222
302.857
300.127
329.72
323.126
339.57
337.151
301.586
307.972
307.182
299.504
300.002
300.001
300.023
300.002
300.001
300.024
300.003
300
300.006
300.07
301.316
300.659
300.122
321.52
307.447
314.69
326.353
322.47
309.46
316.298
303.623
299.978
300.515
300.139
300.781
299.676
301.846
300.004
300.003
300.033
299.996
300
300.076
300.004
300.004
300.003
300.033
299.995
300
300.076
300.004
300.006
300
300.01
300.034
300.023
300.001
300.001
300
300
300
300
357.428
359.473
373.062
390.351
376.595
386.607
395.372
378.528
387.279
395.583
375.391
385.452
394.897
373.279
383.069
393.874
353.722
369.383
366.226
380.227
393.27
367.367
382.442
394.262
359.749
378.784
393.187
367.633
382.428
394.281
368.251
381.986
366.609
380.834
393.603
361.99
378.385
392.703
360.307
378.349
392.876
356.839
361.279
373.018
390.189
370.74
380.27
392.953
358.061
371.893
389.904
362.649
374.336
390.717
371.321
381.191
393.321
374.108
384.34
394.453
371.985
381.63
393.375
370.857
367.937
379.05
392.517
370.994
367.55
378.18
392.091
377.196
386.807
375.511
385.235
394.824
376.811
374.358
368.893
378.794
392.156
366.797
378.711
392.454
366.653
378.219
392.153
371.224
383.156
394.232
377.712
386.735
395.339
377.37
385.055
394.804
379.893
387.485
395.545
368.329
379.593
392.751
359.045
371.435
389.594
363.735
375.959
391.435
367.754
377.021
391.646
356.206
370.93
389.579
360.895
374.349
391.075
365.686
376.846
391.619
375.413
384.04
394.227
374.075
383.939
394.327
369.843
382.495
393.999
373.865
384.156
394.436
371.926
383.201
394.159
368.405
382.334
394.115
358.339
376.244
392.13
360.899
378.307
392.916
354.196
373.099
391.184
367.716
382.111
394.13
359.97
378.982
393.238
368.002
382.432
394.181
357.046
375.059
391.827
356.686
374.832
391.776
359.027
376.908
392.573
353.213
373.513
391.505
352.958
373.335
391.455
364.49
379.555
393.093
363.601
380.511
393.731
361.144
378.134
392.877
362.633
379.947
393.454
350.152
373.376
391.845
364.107
379.784
393.159
363.686
380.727
393.729
348.666
371.725
390.889
348.665
372.224
391.204
340.078
367.906
390.689
343.029
366.043
388.891
350.803
371.66
390.874
348.494
369.164
389.824
343.947
365.147
388.413
343.968
344.729
367.804
389.661
344.073
367.091
389.302
344.221
367.1
389.293
341.256
364.852
388.524
345.016
366.916
389.082
300
301.307
300
300
300
300.006
300
300
300
300.006
300
300
300.001
300
300.008
300.003
300.025
300.11
300.111
300.003
300.068
300.045
300
300
300
309.489
312.246
305.746
313.849
300.667
300.285
302.008
304.243
301.482
301.36
300.181
301.522
300.221
303.806
300.414
300.48
300.669
300.071
300.506
300.049
333.952
336.742
361.451
335.866
360.796
336.149
360.915
340.428
364.735
337.994
300
300
300.028
302.351
309.767
300
300
300.023
302.528
310.349
300
300
299.998
299.722
307.535
300
300
300.001
300.504
308.577
300
300
300.001
300.603
309.12
300
300
300
300.774
310.14
300
300
300
301.013
311.994
300
300
300
301.168
314.096
300
300
300
301.03
314.487
300
300
300
300.24
350.964
300
300
300
300
300
300
300
300
300
300
300
300
300
300
300
300
300
300
300
300
300
300
300
300
300
300
300
300
300
300
300
300
300
300
300
300
300
300
300
300
300
300
300
300
300
300
300
300
300
300
300
300
300
300
300
300
300
300
300
300
300
300
300
300
300
300
300
300
300
300
300
300
300
299.992
300.022
300.093
300.001
300.002
300.024
300.075
300.729
304.054
308.235
300.485
301.446
304.147
306.983
308.868
313.103
313.616
308.609
309.62
312.575
312.877
300
300
300
300
300
300
300
300.002
300.024
300.076
300.001
300.002
300.024
300.077
301.507
304.648
307.762
300.55
301.701
304.993
308.123
309.804
312.943
313.239
309.024
310.014
312.991
313.355
300
300
300
300
300
300
300
300.002
300.025
300.078
300
300.002
300.026
300.078
301.845
305.781
309.146
300.679
302.118
306.464
309.925
310.545
313.243
313.744
309.873
310.876
313.303
314.32
300
300
300
300
300
300
300
300.002
300.027
300.081
300
300.002
300.028
300.083
302.386
307.742
311.416
300.877
302.754
308.923
312.786
311.238
313.341
314.412
311.412
312.069
313.429
314.735
300
300
300
300
300
300
300
300.001
300.029
300.087
300
300.001
300.028
300.085
303.151
311.016
315.148
301.093
303.533
312.499
317.116
313.011
313.562
315.053
312.808
313.649
313.728
315.574
300
300
300
300
300
300
300
300.001
300.026
300.076
300
300.001
300.023
300.067
303.755
314.526
319.449
301.164
303.825
315.45
320.396
313.993
314.071
316.135
314.16
314.441
314.241
317.458
300
300
300
300
300
300
300
300
300.011
300.053
300
300
300
299.998
303.817
323.774
314.275
300.045
300.38
332.112
346.536
314.605
314.279
317.613
335.739
300
300
300
300
300.001
300
300.216
340.897
345.144
331.116
320.9
334.861
337.516
321.313
332.815
332.708
328.21
316.075
314.408
315.114
314.971
314.885
314.83
316.645
315.515
314.299
314.527
314.359
314.565
314.373
315.677
316.521
317.2
316.714
318.328
316.502
317.661
316.996
316.963
319.208
336.733
332.222
315.557
314.612
317.935
316.134
315.546
318.587
317.192
314.8
314.561
316.999
317.63
318.398
317.331
306.901
300.148
306.037
300.146
304.114
300.093
309.757
307.301
306.311
363.687
313.158
301.221
331.314
326.11
320.276
329.792
350.109
300
300
300
300
300
300
300
300.219
300.007
300.005
300.172
306.154
300.132
300.079
309.518
304.927
300.865
327.53
326.035
314.801
314.354
314.274
314.98
314.369
314.907
314.472
300.017
300.039
301.316
300.024
300.065
300.364
301.37
350.509
348.414
360.962
320.661
330.658
306.845
336.956
307.315
328.058
320.554
330.773
327.935
345.613
342.057
326.263
341.521
333.178
326.756
328.651
327.439
320.614
320.504
324.946
356.158
354.965
352.447
330.445
337.583
325.665
342.001
333.501
325.146
339.8
318.576
319.018
316.594
316.415
316.81
316.712
316.495
316.462
317.179
317.577
317.716
318.309
318.298
318.302
317.677
317.602
317.23
317.501
317.188
318.148
317.062
318.083
317.353
316.77
316.987
316.615
317.608
316.597
317.681
316.784
319.074
316.284
315.706
323.673
315.664
321.739
319.388
324.51
331.807
324.275
336.657
322.405
330.183
322.426
328.072
320.472
334.951
319.422
327.168
329.967
325.836
316.789
318.008
317.612
322.473
326.126
320.781
315.929
317.178
320.203
316.934
326.794
326.573
325.761
334.817
323.557
316.027
315.688
318.246
318.873
316.398
321.363
318.404
318.967
318.7
319.385
315.893
317.18
316.225
319.139
318.759
316.248
314.751
315.406
316.334
315.402
318.363
319.844
320.365
325.181
317.495
314.762
314.626
315.456
315.79
314.95
317.273
317.056
316.782
316.854
317.926
317.913
317.914
318.117
317.377
336.066
355.295
317.404
334.044
315.833
307.964
347.449
349.755
360.664
357.523
366.808
348.062
357.131
355.164
326.972
351.17
340.839
340.782
357.472
322.228
354.962
332.578
368.341
324.353
332.741
346.125
356.301
353.881
327.941
331.49
356.619
332.42
354.755
356.392
354.218
366.377
359.136
324.646
329.36
350.152
357.808
332.614
348.294
331.386
334.974
335.715
349.771
349.259
341.944
308.032
342.378
304.962
301.124
300.626
304.113
301.099
303.741
300.567
306.851
309.114
301.498
301.273
301.509
312.73
312.681
301.288
330.109
338.775
311.79
329.677
313.18
305.657
340.085
327.911
330.054
302.695
312.845
304.784
314.93
300.732
305.264
302.425
327.055
323.593
333.262
326.69
300
300
300
300
300.79
303.992
300.412
307.092
311.016
300.413
302.729
324.76
302.589
300.939
307.267
308.713
300.809
321.673
308.744
303.196
316.869
321.144
328.541
330.341
328.208
328.463
322.395
321.539
340.597
318.881
356.59
345.04
357.488
337.629
322.952
355.547
346.661
360.277
316.189
316.995
317.006
316.37
316.262
316.8
316.236
327.784
326.7
315.489
316.597
324.702
317.168
327.988
306.491
298.882
300.272
306.232
299.331
304.435
308.795
315.139
315.694
315.414
316.127
315.053
315.677
315.536
315.234
316.361
316.073
315.949
315.721
315.658
315.462
314.631
315.226
314.77
315.51
314.63
315.198
314.776
314.617
315.607
315.313
314.862
315.247
314.819
314.641
317.966
315.784
316.308
317.906
315.738
318.31
319.201
316.593
314.846
315.205
315.726
314.962
316.397
317.227
301.363
300.853
305.319
300.451
306.343
299.957
309.643
309.532
301.819
301.556
300.386
313.062
312.922
299.905
332.658
315.854
304.162
348.222
308.524
329.989
342.309
303.675
316.988
306.072
318.628
299.858
302.946
306.242
301.432
300.718
299.973
301.074
299.934
302.59
300.108
338.082
325.823
345.105
337.167
329.655
343.986
340.16
330.306
319.96
323.307
307.163
328.434
306.092
300
300.003
300.007
300.06
301.192
300.113
300.59
314.163
314.26
314.259
314.613
314.087
314.397
314.375
314.212
314.125
314.246
314.353
314.125
314.413
314.204
320.732
307.495
318.012
326.275
321.031
309.208
323.046
302.789
299.968
300.119
300.506
299.744
300.769
301.636
300
300.006
300.01
300.027
300.001
300.018
300.001
300
300
300
300
358.001
373.39
390.727
365.451
378.206
392.382
348.668
366.927
388.426
373.196
390.673
350.988
368.569
388.984
341.276
361.369
386.359
366.485
377.862
392.106
352.924
369.163
389.145
365.378
377.158
392.125
349.747
367.339
388.47
361.99
376.163
391.826
354.858
371.024
389.882
359.4
373.609
390.652
349.352
367.449
388.519
352.188
369.042
389.057
326.636
345.078
379.701
352.863
369.556
389.166
353.97
371.077
389.893
348.775
367.143
388.339
350.805
368.829
389.075
329.577
349.141
381.553
349.619
367.563
388.522
332.181
352.819
383.068
328.236
347.83
380.989
341.471
361.635
386.418
326.892
346.722
380.509
327.558
346.895
380.401
328.176
348.082
380.893
328.472
348.478
381.179
326.478
345.521
379.672
326.543
345.998
380.115
370.747
381.252
393.386
375.927
384.038
394.339
377.753
387.037
395.505
374.873
385.549
395.045
374.036
383.635
394.173
370.135
382.628
394.099
366.914
377.645
391.985
367.037
380.912
393.524
359.894
374.77
391.207
367.501
379.104
392.59
389.087
367.35
381.886
394.047
363.475
379.2
393.049
361.792
378.452
392.745
361.369
379.012
393.157
394.027
358.53
373.258
390.618
363.766
375.304
391.072
360.142
373.095
390.313
358.847
373.447
390.655
362.075
374.256
390.754
357.287
371.277
389.659
372.284
381.586
393.333
371.278
380.858
393.128
350.413
368.206
388.925
370.666
380.278
392.877
370.651
379.878
392.687
356.586
372.575
390.461
362.592
376.49
391.803
348.569
366.864
388.376
372.764
390.504
350.74
368.936
389.114
351.253
369.194
389.305
351.022
369.124
389.207
350.362
368.244
388.859
351.766
369.664
389.501
341.096
361.627
386.43
339.352
359.987
385.784
340.409
361.197
386.306
341.595
361.555
386.411
338.288
359.358
385.691
366.345
376.698
391.53
372.321
381.832
393.54
367.758
378.1
392.123
364.2
376.217
391.485
373.013
382.785
393.929
353.311
369.23
389.084
364.737
375.367
391.11
351.703
368.953
389.064
373.209
382.031
393.622
350.321
367.296
388.343
360.431
373.057
390.303
350.924
368.501
388.889
369.199
379.597
392.792
367.366
378.008
391.96
373.615
384.658
394.69
372.684
384.335
394.602
364.856
376.689
391.642
366.667
377.986
392.05
369.999
380.776
393.227
375.112
383.992
394.334
354.892
371.304
389.98
359.211
374.103
390.941
348.519
366.815
388.355
354.176
370.883
389.766
327.085
345.718
379.928
326.705
345.035
379.571
327.464
346.019
379.906
327.441
346.255
380.148
327.487
346.141
380.028
326.144
344.448
379.265
327.123
345.935
379.943
339.946
360.355
385.985
336.532
356.949
384.618
334.743
355.682
384.334
345.745
364.103
387.292
342.898
361.904
386.502
352.494
369.59
389.313
353.948
370.909
389.809
350.188
368.09
388.791
350.717
368.622
389.065
351.417
369.11
389.152
349.951
367.902
388.727
350.327
368.375
388.946
347.475
366.179
388.154
348.584
366.779
388.261
348.281
366.682
388.223
347.193
365.972
388.014
339.521
360.478
386.277
341.877
362.045
386.688
342.097
361.996
386.594
338.203
358.768
385.576
331.105
351.429
382.566
342.639
362.273
386.738
343.754
363.265
387.116
344.314
363.755
387.302
350.426
368.619
388.988
351.017
368.999
389.201
348.713
366.778
388.39
349.494
367.645
388.597
351.632
369.23
389.235
349.498
367.897
388.809
337.903
357.305
384.65
332.681
353.158
383.082
337.424
357.031
384.598
331.69
353.101
383.172
332.987
354.57
383.74
333.491
354.479
383.478
334.693
355.529
384.116
329.323
349.418
381.598
336.046
356.785
384.608
335.857
356.672
384.615
333.892
354.862
383.887
342.467
362.78
386.939
341.918
362.672
386.959
335.641
356.779
384.666
342.863
362.566
386.755
342.383
362.862
386.995
339.858
360.567
386.182
329.658
349.706
381.69
328.248
348.235
380.987
329.281
349.328
381.568
327.289
347.585
380.769
327.114
347.342
380.837
327.433
347.785
380.976
328.926
348.839
381.078
329.471
349.608
381.387
328.818
348.704
381.094
328.774
348.665
381.185
327.547
346.938
380.257
327.486
347.101
380.45
376.511
386.313
395.238
378.844
387.799
395.829
374.634
385.77
395.176
374.553
383.929
394.323
375.737
384.438
394.48
374.631
384.121
394.395
373.599
382.85
393.869
371.578
382.098
393.662
377.416
386.907
395.453
371.821
384.414
394.697
372.328
382.85
393.97
373.26
382.376
393.578
370.883
381.905
393.642
370.024
381.056
393.286
373.984
384.831
394.747
373.849
384.458
394.535
377.425
387.112
395.562
379.232
386.915
395.51
379.86
387.896
395.745
372.208
383.2
394.134
376.098
384.971
394.604
374.187
384.345
394.511
366.954
377.045
391.629
373.372
382.507
393.747
372.52
381.356
393.296
364.181
376.258
391.509
373.458
382.654
393.916
374.568
383.556
394.146
369.807
382.657
394.09
374.774
384.966
394.734
372.739
383.816
394.387
381.431
393.467
380.646
393.004
395.451
373.873
385.074
394.884
385.578
394.847
373.003
384.762
394.75
383.743
394.287
370.614
383.718
394.624
372.229
384.547
394.913
355.133
374.606
391.879
355.736
375.014
392.006
352.69
373.182
391.415
352.293
372.499
391.135
367.893
382.196
394.145
358.313
377.9
392.898
365.555
381.168
393.863
364.54
380.542
393.637
356.778
375.469
391.894
359.586
377.617
392.735
352.76
372.28
390.929
359.798
378.862
393.189
367.252
382.057
394.122
367.17
381.208
393.735
357.062
374.934
391.792
356.551
374.675
391.733
359.217
377.013
392.578
365.271
380.103
393.367
359.709
378.303
393.002
359.74
377.251
392.62
358.172
377.003
392.462
349.751
372.9
391.698
363.403
379.519
393.121
361.161
379.512
393.401
343.741
365.699
388.869
344.604
367.55
389.531
345.808
367.547
389.419
348.937
370.467
390.548
343.326
366.508
389.152
366.918
389.3
341.844
364.989
388.491
344.879
366.924
389.078
347.142
371.144
390.747
346.767
371.013
390.748
341.013
369.112
391.232
341.806
365.398
388.721
344.572
367.318
389.368
343.99
366.967
389.245
300
301.544
300
300
300
300.001
300.003
300.072
300.003
300.027
300.049
300
300
300
304.049
312.194
301.636
300.339
311.769
300.609
304.613
305.079
300.215
303.623
300.441
301.701
304.675
300.572
300.662
300.445
300.065
300.042
359.367
386.716
336.714
337.15
361.89
336.506
337.431
334.09
359.341
300
300
300.019
301.983
307.492
300
300
300.015
302.213
308.599
300
300
299.995
300.49
309.085
300
300
300.001
301.168
309.923
300
300
300.001
301.414
311.018
300
300
300.001
301.818
312.608
300
300
300.001
302.356
315.339
300
300
300
302.843
317.743
300
300
300
302.915
316.807
300
300
300
300.184
337.096
300
300
300
300
300
300
300
300
300
300
300
300
300
300
300
300
300
300
300
300
300
300
300
300
300
300
300
300
300
300
300
300
300
300
300
300
300
300
300
300
300
300
300
300
300
300
300
300
300
300
300
300
300
300
300
300
300
300
300
300
300
300
300
300
300
300
300
300
300
300
300
300
300
300
300.065
300.008
300.001
300
300.051
300.011
299.748
308.045
302.849
301.123
300.283
306.713
303.438
305.475
313.316
309.752
309.653
307.46
312.345
310.838
300
300
300
300
300
300
300
300
300.051
300.011
300.001
300
300.051
300.011
300.295
307.527
303.652
301.302
300.318
307.923
304.453
307.868
313.022
311.239
310.655
309.083
313.401
312.397
300
300
300
300
300
300
300
300
300.051
300.011
300.001
300
300.052
300.01
300.352
308.96
304.873
301.611
300.388
309.91
306.174
309.677
313.803
312.959
312.092
311.305
314.657
314.436
300
300
300
300
300
300
300
300
300.052
300.01
300.001
300
300.052
300.01
300.437
311.472
307.123
302.086
300.483
313.126
309.14
312.182
314.984
315.226
314.168
314.281
316.309
316.945
300
300
300
300
300
300
300
300
300.051
300.01
300.001
300
300.048
300.009
300.541
315.367
310.918
302.622
300.582
317.52
313.568
315.713
317.296
318.371
316.553
318.108
318.365
320.231
300
300
300
300
300
300
300
300
300.045
300.008
300
300
300.039
300.006
300.605
320.289
315.381
302.914
300.598
321.597
317.297
319.388
320.072
322.765
316.973
321.158
320.94
323.871
300
300
300
300
300
300
300
300
300.028
300.005
300
300
299.999
300.001
300.556
314.888
330.846
300.31
300.027
348.459
333.321
327.218
320.988
323.282
347.414
300
300
300
300
300
300.001
300.231
340.53
351.982
319.89
317.351
317.749
316.261
318.382
317.113
317.678
301.13
300.1
305.637
300.126
303.497
300.065
309.286
377.518
329.89
322.826
331.88
353.32
328.195
330.153
331.183
320.529
320.072
321.711
319.67
320.597
318.575
321.88
320.915
322.044
323.23
322.993
321.676
322.165
322.268
324.796
316.675
319.182
319.202
325.716
336.517
348.513
357.236
320.58
330.473
324.318
319.489
327.451
326.234
328.269
326.371
329.549
355.248
329.158
324.874
320.087
328.725
307.47
305.513
370.157
354.046
312.614
300.968
300
300
300
300
300.935
300.118
300.056
309.129
300.75
300.007
300.004
300.142
326.076
325.204
305.08
338.305
300.727
340.553
328.916
347.911
353.745
331.873
351.137
335.329
319.784
330.015
305.658
349.37
305.756
339.201
319.497
320.071
318.583
321.635
328.673
319.177
319.074
324.876
329.168
331.663
344.977
343.99
357.778
344.655
300.03
301.202
300.016
300.02
300.047
300.279
301.224
358.125
357.602
321.468
367.297
363.847
365.278
367.031
346.882
337.886
343.234
353.54
335.504
353.523
347.887
333.957
353.745
320.507
320.341
320.347
321.002
320.193
320.627
321.187
320.431
319.593
319.426
321.037
321.114
319.249
320.488
319.95
319.701
318.923
319.414
319.691
320.709
319.287
320.984
321.734
321.449
322.254
321.248
322.035
321.181
339.014
323.087
324.321
322.888
339.771
332.9
321.143
317.786
317.983
319.281
323.845
327.015
332.61
333.763
345.248
331.682
320.598
318.306
323.904
319.651
324.306
332.074
321.629
319.827
321.901
333.565
323.468
325.15
345.731
324.351
336.767
339.073
340.389
346.552
333.742
334.939
348.474
353.39
342.493
354.139
342.318
345.706
343.671
356.521
347.338
323.636
325.878
329.024
322.296
327.647
347.03
325.396
328.042
328.395
340.35
343.469
335.962
327.929
329.57
329.573
335.511
343.697
342.262
349.77
341.802
340.197
325.315
326.648
332.385
326.983
335.794
333.27
330.352
331.843
332.621
343.266
342.772
332.643
366.944
324.219
329.643
347.927
353.772
352.803
323.242
330.492
330.109
350.827
353.414
357.989
359.677
365.983
355.021
324.421
323.179
350.316
328.573
353.619
348.833
330.2
334.551
334.545
352.96
336.461
317.643
333.034
315.461
307.772
344.405
345.692
364.566
358.302
346.548
358.247
366.607
347.46
325.45
340.163
338.144
321.234
361.585
352.976
354.025
305.766
300.545
303.716
300.934
303.396
300.498
306.52
301.181
301.305
308.668
301.34
312.222
312.101
301.201
326.61
323.398
334.918
325.61
337.406
330.045
312.428
331.068
314.028
305.992
327.118
328.719
302.556
313.419
303.951
315.036
300.614
302.281
304.374
339.443
307.948
304.543
300
300
300
300
300
300
300
320.882
309.458
303.51
300.836
306.96
307.976
300.766
300.624
303.823
300.378
306.396
325.246
311.426
300.392
302.696
316.371
302.451
366.052
342.555
359.052
340.853
341.574
346.785
353.647
338.467
344.666
350.837
337.502
315.798
365.856
342.594
331.909
321.566
360.084
320.611
320.779
319.936
321.897
320.603
319.934
321.854
329.363
326.831
318.163
317.723
327.042
320.612
328.88
304.385
299.141
300.163
305.703
299.522
303.595
307.95
318.339
319.259
319.378
319.412
318.401
318.942
318.749
317.792
318.754
317.675
316.788
318.54
318.049
316.719
306.357
300.716
304.769
300.291
305.623
299.913
308.843
301.433
301.577
309.035
300.11
312.692
312.235
299.843
321.321
320.687
321.427
321.409
320.743
321.061
322.035
321.72
322.144
321.848
322.965
321.681
322.869
322.147
329.97
321.55
324.433
325.643
330.05
322.669
331.528
333.86
326.448
335.538
334.587
329.59
333.381
336.536
330.111
315.454
304.046
344.099
330.665
308.158
339.368
303.353
316.467
304.865
317.532
299.806
302.735
304.93
301.508
300.212
301.059
299.97
299.897
302.637
300.107
352.953
337.161
354.607
349.276
344.256
347.432
345.415
355.537
344.732
348.055
306.691
323.716
306.193
300
300.001
300.006
300.066
301.29
300.12
300.617
318.044
317.835
318.001
317.621
318.878
318.434
317.746
322.83
325.804
321.926
324.292
324.19
322.284
324.654
320.886
301.515
327.398
331.039
320.943
306.221
333.636
302.014
299.981
300.073
300.351
299.843
300.425
301.392
300
300.003
300.009
300.022
300.001
300.01
300
300
300
300
300
358.89
373.86
390.882
366.708
378.952
392.65
351.424
368.882
389.115
368.125
379.535
392.883
361.643
375.175
391.259
384.385
394.548
368.524
379.252
392.604
379.075
386.212
395.238
380.703
387.513
395.571
383.459
389.293
396.197
395.543
373.759
385.503
395.138
385.769
395.082
363.137
375.742
391.376
367.775
378.537
392.32
329.982
349.531
381.682
349.828
366.791
388.227
360.496
374.701
391.078
354.632
370.625
389.637
334.675
355.403
384.171
362.762
375.845
391.531
362.862
376.644
391.843
367.142
378.636
392.374
368.135
378.887
392.54
367.594
379.504
392.833
344.854
363.71
387.162
330.366
350.537
381.998
330.639
351.164
382.387
342.193
361.921
386.547
345.035
364.386
387.625
352.832
369.04
389.103
366.831
378.441
392.416
360.995
374.68
391.016
353.519
370.231
389.651
370.82
380.858
393.217
366.913
380.466
393.352
373.81
383.205
394.193
370.283
379.9
392.765
365.545
379.912
393.186
375.896
384.81
394.769
379.355
386.703
395.265
377.586
387.311
395.686
376.762
386.477
395.315
394.066
362.368
378.389
392.667
361.05
377.962
392.567
360.718
378.62
393.046
365.771
381.019
393.787
359.114
378.336
393.088
366.921
381.891
394.061
362.029
375.689
391.508
369.611
380.504
393.12
354.421
371.419
389.988
357.601
373.681
390.921
351.684
369.64
389.407
353.637
370.249
389.566
352.607
370.406
389.773
362.257
376.354
391.671
364.935
378.346
392.456
362.05
376.242
391.679
361.223
374.855
391.148
367.461
379.28
392.804
364.658
378.247
392.471
383.772
394.329
369.322
379.335
392.531
373.735
383.514
394.188
369.786
379.672
392.68
368.963
379.468
392.658
373.66
383.52
394.21
374.297
383.453
394.158
376.751
384.308
394.347
372.745
381.435
393.341
376.258
384.721
394.589
373.51
383.423
394.235
373.87
382.857
393.84
379.353
387.091
395.409
379.039
386.685
395.257
377.962
386.145
395.113
367.61
378.854
392.583
376.986
385.246
394.763
375.936
383.79
394.15
387.363
395.605
395.288
385.443
394.932
379.264
386.888
395.403
374.553
386.095
395.304
369.832
384.128
394.776
385.844
395.093
375.485
385.293
394.925
363.168