/*--------------------------------*- C++ -*----------------------------------*\
| =========                 |                                                 |
| \\      /  F ield         | OpenFOAM: The Open Source CFD Toolbox           |
|  \\    /   O peration     | Version:  2.2.1                                 |
|   \\  /    A nd           | Web:      www.OpenFOAM.org                      |
|    \\/     M anipulation  |                                                 |
\*---------------------------------------------------------------------------*/
FoamFile
{
    version     2.0;
    format      ascii;
    class       volVectorField;
    location    "14.66426";
    object      U;
}
// * * * * * * * * * * * * * * * * * * * * * * * * * * * * * * * * * * * * * //

dimensions      [0 1 -1 0 0 0 0];

internalField   nonuniform List<vector> 
25373
(
(-7.63607e-05 -7.58574e-05 -0.053419)
(0.000190839 2.71118e-05 -0.0533134)
(6.93278e-05 -0.000276075 -0.0534192)
(0.000307941 0.0001411 -0.0532682)
(0.000499743 0.000347253 -0.0532622)
(0.000126792 -8.42375e-05 -0.0533267)
(0.000530548 0.000143495 -0.0532012)
(0.000800467 0.000232536 -0.0520001)
(-0.000286475 -7.10803e-05 -0.0534653)
(0.000114781 5.19606e-07 -0.0532792)
(-0.000114169 4.99011e-05 -0.0525094)
(0.000640547 -0.000224476 -0.0420952)
(0.000138263 7.07517e-05 -0.0537792)
(0.00038207 0.000528521 -0.0539406)
(0.000228936 -5.15747e-05 -0.0537819)
(0.000651971 0.000331196 -0.0538781)
(0.000578519 0.000721179 -0.0537679)
(0.000463109 0.000237774 -0.0539557)
(0.000847859 0.00019077 -0.0537544)
(0.00148769 0.0013604 -0.0521936)
(9.87249e-06 -6.66713e-05 -0.0537715)
(0.000376746 0.000110116 -0.0537698)
(0.0010719 0.000129351 -0.0530866)
(0.00138248 0.000403757 -0.0412232)
(0.000185905 3.89024e-05 -0.0541169)
(0.000232629 0.000128571 -0.0541088)
(0.000199215 -2.58804e-05 -0.0541226)
(0.000319582 0.000101063 -0.0539676)
(0.000445894 0.000354542 -0.0539607)
(0.000283821 -4.28594e-05 -0.0541344)
(0.000588986 0.000103365 -0.0538884)
(0.000986452 0.000511208 -0.0535763)
(0.000146019 -4.52334e-05 -0.0541514)
(0.000609002 -0.00013092 -0.0540838)
(0.00101609 -0.000448179 -0.0537814)
(0.0016579 -0.000697093 -0.0523646)
(0.000187849 5.98563e-05 -0.0546172)
(0.00026352 0.000217684 -0.0545883)
(0.000209635 -1.5885e-05 -0.0546231)
(0.000424328 0.000209335 -0.0545212)
(0.000644777 0.000609224 -0.0544113)
(0.000335653 1.96091e-05 -0.0545994)
(0.000766042 0.000286512 -0.0543935)
(0.00136979 0.000945736 -0.0540339)
(0.000127458 -2.80119e-05 -0.0546563)
(0.000610581 -3.55868e-05 -0.0545268)
(0.0011232 -3.01049e-05 -0.0542451)
(0.00177532 0.000397278 -0.0505174)
(0.000182205 6.09222e-05 -0.0551633)
(0.000292756 0.000273548 -0.0551172)
(0.000199209 -1.75337e-05 -0.0551686)
(0.000491648 0.00028564 -0.05507)
(0.000742491 0.000781438 -0.0549656)
(0.000368998 6.51743e-05 -0.055132)
(0.000926061 0.000420519 -0.0549594)
(0.00170897 0.00134502 -0.054546)
(0.000122868 -1.51172e-05 -0.0552048)
(0.000689552 3.0813e-05 -0.0550632)
(0.00147538 0.000134608 -0.0547954)
(0.00278846 0.00099795 -0.0504336)
(0.000171125 5.47616e-05 -0.0557436)
(0.000299465 0.000286704 -0.0557044)
(0.000176389 -1.95122e-05 -0.0557445)
(0.000501676 0.000316752 -0.0556739)
(0.000772046 0.000836418 -0.0556556)
(0.000369699 8.68293e-05 -0.0557176)
(0.000999865 0.000489751 -0.0556342)
(0.00200794 0.00166834 -0.0553653)
(0.000115542 -8.37345e-06 -0.0558012)
(0.000709974 6.22962e-05 -0.0556764)
(0.00162363 0.000194743 -0.0555674)
(0.00330211 0.00129465 -0.0511032)
(0.000153063 2.78964e-05 -0.0562864)
(0.000259185 0.000221171 -0.056268)
(0.000136004 -2.9208e-05 -0.0562859)
(0.000431028 0.000252768 -0.0562612)
(0.000703883 0.000724459 -0.0563745)
(0.000292884 6.19108e-05 -0.0562772)
(0.000841252 0.00041058 -0.0563782)
(0.00188411 0.00156091 -0.0565066)
(8.90012e-05 9.77526e-07 -0.056371)
(0.000568404 4.02064e-05 -0.0563014)
(0.00136561 0.000109892 -0.0565255)
(0.00301367 0.00129769 -0.0522965)
(0.000118342 -2.08818e-05 -0.0566576)
(0.000171953 7.94231e-05 -0.0566508)
(7.72432e-05 -5.58431e-05 -0.0566536)
(0.000223602 5.16646e-05 -0.0566673)
(0.000391302 0.000267057 -0.0569229)
(0.000120313 -1.65228e-05 -0.0566488)
(0.000359222 0.00013405 -0.0569442)
(0.00106869 0.000781847 -0.0576454)
(4.15084e-05 -1.84988e-07 -0.056767)
(0.000221322 -2.91794e-05 -0.0567484)
(0.000497298 -0.000141428 -0.0573431)
(0.00115595 0.000545587 -0.0539204)
(9.06804e-05 -0.000110734 -0.0567718)
(9.49741e-05 -0.000136435 -0.0567918)
(2.84497e-07 -8.25639e-05 -0.0567613)
(-4.9074e-06 -0.000173956 -0.0568337)
(7.34121e-05 -0.000328369 -0.0572391)
(-8.20661e-05 -0.000102731 -0.056771)
(-0.000225045 -0.000242621 -0.0571854)
(1.97027e-05 -0.00030407 -0.058157)
(-2.41714e-05 -6.09798e-06 -0.05689)
(-0.000178324 -9.61319e-05 -0.0569238)
(-0.000497427 -0.000449075 -0.0577444)
(-0.00118341 0.000135463 -0.0551608)
(3.02488e-05 -0.000207067 -0.0563737)
(-6.57956e-05 -0.000500364 -0.0563956)
(-0.000120323 -0.000105594 -0.0563597)
(-0.000395612 -0.00050994 -0.056481)
(-0.000508644 -0.00121311 -0.0569709)
(-0.000432602 -0.000227559 -0.0563811)
(-0.00101234 -0.000732948 -0.0570606)
(-0.000705159 -0.00108471 -0.0582371)
(-0.000121573 5.74993e-06 -0.0564773)
(-0.00074514 -0.000193594 -0.0564936)
(-0.00149725 -0.000677036 -0.0574179)
(-0.00244066 -6.29345e-05 -0.0590697)
(-9.0828e-05 -0.000263427 -0.0533683)
(1.79501e-05 4.2418e-05 -0.0539547)
(0.000137022 -0.000368856 -0.0533914)
(-3.11471e-06 -0.000448238 -0.0534207)
(7.39263e-05 -0.000347011 -0.0534256)
(2.43282e-06 -3.94336e-05 -0.0540139)
(0.000116877 6.22828e-06 -0.0538326)
(0.000166215 0.00021272 -0.0537729)
(-0.000168478 -0.000233739 -0.0533703)
(-7.57195e-05 -0.000337541 -0.0533724)
(-8.17994e-05 -0.000248611 -0.0534119)
(6.33761e-05 -4.42646e-05 -0.0539542)
(0.000110678 -0.000104279 -0.0539542)
(0.000211147 4.42651e-05 -0.053803)
(-0.000123747 -0.000233559 -0.0533978)
(0.000152938 -0.000288592 -0.053373)
(0.000184791 7.24565e-06 -0.0533537)
(9.78124e-05 7.58819e-05 -0.0539022)
(0.000190665 2.72973e-05 -0.0537784)
(0.000232212 1.19986e-06 -0.0537163)
(0.00050307 0.000287953 -0.0536363)
(-0.000173327 -0.000240512 -0.0533782)
(0.000130277 -0.000159258 -0.0539594)
(-0.000143066 -4.4036e-05 -0.0533736)
(-0.000111778 -0.000306675 -0.0534052)
(9.94568e-05 -1.00545e-05 -0.0533563)
(0.000220004 -0.000106728 -0.0539018)
(0.000147642 3.63958e-05 -0.0537038)
(0.000150418 1.33907e-05 -0.0537746)
(0.000371543 0.000304241 -0.0536107)
(-0.000363065 -0.000204467 -0.0534362)
(-0.000332248 -0.000105138 -0.0533982)
(-0.000330472 -0.000160905 -0.0534354)
(0.000107407 -8.26853e-05 -0.0538739)
(1.95072e-05 -0.000165554 -0.0540378)
(0.000248353 -4.5794e-05 -0.0537967)
(-0.000527454 -6.62989e-05 -0.0534283)
(-0.000285894 0.000105898 -0.0534776)
(-0.000488563 6.31172e-05 -0.0534259)
(-5.14467e-08 -7.65369e-05 -0.054008)
(1.95433e-05 -3.72466e-05 -0.0537275)
(1.00302e-05 7.51023e-05 -0.0540374)
(6.57106e-05 8.22312e-05 -0.0537043)
(8.64093e-05 -3.02359e-05 -0.0537244)
(7.37362e-05 8.02727e-06 -0.0541066)
(-2.95039e-05 -2.28889e-05 -0.0537546)
(0.000143423 -0.000156511 -0.0536979)
(0.00013734 7.66011e-05 -0.0537017)
(-2.06016e-06 -1.03037e-05 -0.054127)
(0.000148883 -9.23658e-05 -0.0541083)
(0.000168099 0.000162236 -0.0540769)
(-6.18629e-05 1.3869e-05 -0.0537645)
(0.000168615 -0.000225217 -0.0537652)
(0.000148964 4.95753e-06 -0.053736)
(2.7983e-05 -2.77352e-05 -0.0541173)
(0.000128956 -0.000139332 -0.0541194)
(0.000203395 5.5858e-05 -0.0540863)
(0.000149059 1.75213e-05 -0.0537311)
(0.00030101 -0.000248967 -0.0537299)
(0.000441501 0.000164748 -0.0536248)
(0.000145262 8.40529e-05 -0.0540847)
(0.000171997 6.58706e-05 -0.0540966)
(0.000280269 -5.61081e-05 -0.0540764)
(0.0004728 0.000282641 -0.0539399)
(6.98713e-05 -0.000121108 -0.053734)
(0.000107507 -0.000143013 -0.0541255)
(-0.000118694 0.000160191 -0.0537183)
(0.000160718 -2.79634e-05 -0.0537286)
(0.000228129 0.000222239 -0.0535971)
(0.000241646 -4.91707e-05 -0.0540907)
(8.1224e-05 0.000116672 -0.0540805)
(0.000217308 -1.18978e-05 -0.0541127)
(0.000333249 0.000239651 -0.0539754)
(-4.1588e-05 -6.83587e-05 -0.05373)
(1.79114e-05 -0.00015454 -0.0537766)
(0.00012056 -5.30035e-05 -0.053732)
(2.54897e-05 -6.86966e-05 -0.0541116)
(3.61123e-05 -0.000141618 -0.0541451)
(0.000206141 -2.7466e-05 -0.0540894)
(-6.86269e-05 -2.76268e-05 -0.0536862)
(1.30794e-05 7.84536e-05 -0.0537929)
(-9.53621e-06 8.72192e-05 -0.0536817)
(3.81981e-05 -5.97096e-05 -0.0541313)
(9.37828e-05 -1.58553e-05 -0.0540215)
(5.01838e-05 6.52311e-05 -0.0541582)
(0.000160143 8.82031e-05 -0.054005)
(4.47938e-07 -8.14145e-05 -0.0541459)
(0.000149571 -1.80004e-05 -0.0544958)
(3.89311e-05 2.70406e-05 -0.0541577)
(0.000208904 -0.000209218 -0.0541232)
(0.000267319 8.81083e-06 -0.0541194)
(6.80344e-05 2.17133e-06 -0.0545078)
(0.000140147 7.07038e-05 -0.0544732)
(0.000187056 0.000168466 -0.0544742)
(-8.51903e-05 9.18314e-05 -0.0541492)
(0.000252251 -0.000251044 -0.0541502)
(0.000111003 -4.3468e-05 -0.0541322)
(0.000149552 -9.56082e-05 -0.0544791)
(6.14129e-05 -1.77253e-05 -0.0544801)
(0.000210815 7.08923e-05 -0.0544689)
(0.000162294 0.000267138 -0.0541388)
(0.000490094 -0.000114315 -0.0541283)
(0.00037974 0.000201959 -0.0540226)
(0.000127662 2.16115e-05 -0.0544579)
(0.000270602 7.83399e-05 -0.0544608)
(0.000228425 0.000167449 -0.0544195)
(0.000379784 0.00023694 -0.0544057)
(-7.87431e-06 -0.000115593 -0.0541606)
(8.55188e-05 -5.72352e-05 -0.0545096)
(3.32697e-05 0.000253512 -0.0541298)
(0.000352026 -2.63207e-05 -0.0541503)
(0.000291722 0.000169125 -0.0540522)
(0.000184009 -6.01866e-05 -0.0544622)
(0.000307556 8.62189e-05 -0.0544244)
(0.000226314 7.28453e-05 -0.0544661)
(0.000344894 0.000206009 -0.0544136)
(-0.000142773 1.89775e-05 -0.0541248)
(8.85573e-05 -0.000122718 -0.0541697)
(3.62794e-05 7.74955e-05 -0.0541297)
(0.000153448 -7.70957e-05 -0.0544897)
(5.03782e-05 -7.80241e-05 -0.0545179)
(0.000190502 -1.3181e-05 -0.0544886)
(-2.20363e-05 8.11579e-05 -0.0540613)
(0.000184585 5.25836e-05 -0.0541828)
(9.92312e-06 8.75924e-05 -0.0540586)
(6.17772e-05 -4.3009e-05 -0.0545175)
(0.000202713 1.33239e-05 -0.0544432)
(7.46665e-05 5.10443e-05 -0.0545381)
(0.000207167 7.74796e-05 -0.0544422)
(3.62988e-05 -6.60894e-05 -0.0546248)
(0.000181682 -3.95879e-05 -0.0549754)
(9.67266e-05 1.46188e-05 -0.0546312)
(0.000204603 -0.000191295 -0.054617)
(0.000283124 6.84282e-05 -0.0545989)
(9.2664e-05 -7.1034e-06 -0.0549764)
(0.000165742 8.95117e-05 -0.0549255)
(0.000215885 0.000181297 -0.0549416)
(-6.63677e-05 7.32409e-05 -0.0546226)
(0.000234525 -0.000236902 -0.0546231)
(0.000153506 -3.26115e-06 -0.0546006)
(0.000180872 -0.000114777 -0.0549472)
(5.31627e-05 4.24217e-07 -0.0549437)
(0.000217309 6.48788e-05 -0.0549473)
(0.000172895 0.000250973 -0.054598)
(0.000493381 -7.16001e-05 -0.0545623)
(0.000437733 0.000290558 -0.0545128)
(0.000142208 -1.27793e-06 -0.0548979)
(0.000297713 0.000111099 -0.0549235)
(0.000251837 0.000205371 -0.0548768)
(0.000413104 0.000282529 -0.0548805)
(2.06008e-05 -0.000105785 -0.0546421)
(7.02479e-05 -3.02271e-05 -0.0549796)
(7.5665e-05 0.000256534 -0.0545746)
(0.000346675 -1.73416e-05 -0.0546064)
(0.000388023 0.000219955 -0.0545318)
(0.000160998 -5.18195e-05 -0.0548983)
(0.000352565 9.33217e-05 -0.0548833)
(0.000252406 8.62326e-05 -0.0549243)
(0.000409768 0.000228106 -0.0548898)
(-0.000108692 1.57803e-05 -0.0546356)
(6.90427e-05 -8.16157e-05 -0.0546445)
(0.000104385 8.62194e-05 -0.0546166)
(0.000164235 -6.16541e-05 -0.0549458)
(4.14607e-05 -6.69597e-05 -0.0549907)
(0.000212011 1.34548e-05 -0.0549598)
(7.85113e-05 7.857e-05 -0.0545747)
(0.000159422 5.79451e-05 -0.0546682)
(0.000127946 8.98648e-05 -0.0545633)
(7.83518e-05 -3.51749e-05 -0.0549857)
(0.000230665 3.60208e-05 -0.0549132)
(9.016e-05 5.05682e-05 -0.0550146)
(0.000258678 7.44619e-05 -0.0549244)
(7.96136e-05 -6.3573e-05 -0.0551557)
(0.000191677 -5.69154e-05 -0.0555256)
(0.00013485 8.86542e-07 -0.0551752)
(0.000206282 -0.000126645 -0.0551514)
(0.000303666 0.000108208 -0.0551331)
(0.000106738 -1.24235e-05 -0.0555438)
(0.000187417 7.99122e-05 -0.0554805)
(0.000239239 0.000200697 -0.055499)
(-4.48409e-06 3.76282e-05 -0.0551623)
(0.000198439 -0.000181663 -0.0551609)
(0.000189629 2.73757e-05 -0.0551356)
(0.000185641 -0.000109438 -0.0554968)
(6.39231e-05 -1.00782e-05 -0.0554928)
(0.000235746 7.09703e-05 -0.0554932)
(0.000227895 0.000248526 -0.0551281)
(0.000469241 3.89029e-05 -0.0550916)
(0.000488374 0.000345313 -0.0550536)
(0.000162404 -7.73641e-07 -0.0554524)
(0.000316212 0.000147913 -0.055475)
(0.000285613 0.000210327 -0.0554329)
(0.000451886 0.000317996 -0.0554457)
(2.99269e-05 -7.95411e-05 -0.0551732)
(6.19801e-05 -3.19276e-05 -0.0555333)
(0.000180818 0.000241767 -0.0551063)
(0.000342305 4.44493e-05 -0.0551348)
(0.000452602 0.000261696 -0.0550636)
(0.000154323 -3.81851e-05 -0.0554526)
(0.000362154 0.000113527 -0.0554385)
(0.000279286 9.52575e-05 -0.0554755)
(0.000460192 0.000247728 -0.0554535)
(-2.94752e-05 1.46493e-05 -0.0551787)
(5.41035e-05 -4.24756e-05 -0.055193)
(0.000165036 0.00010434 -0.0551541)
(0.000155376 -4.54632e-05 -0.0555046)
(3.90115e-05 -6.65646e-05 -0.0555579)
(0.00024283 3.3295e-05 -0.0555182)
(0.000196403 8.38196e-05 -0.0551211)
(0.000151239 5.91793e-05 -0.0552145)
(0.000228738 9.08152e-05 -0.055106)
(8.69637e-05 -2.33821e-05 -0.0555554)
(0.000257818 5.1035e-05 -0.0554799)
(0.000103344 5.04555e-05 -0.0555871)
(0.000299199 7.77756e-05 -0.0554931)
(0.000107288 -6.5494e-05 -0.0557444)
(0.000187294 -6.9817e-05 -0.0561047)
(0.000163539 -7.79674e-06 -0.055779)
(0.000202529 -8.17039e-05 -0.0557432)
(0.000307444 0.000133208 -0.0557307)
(0.000112866 -1.54634e-05 -0.0561373)
(0.000195253 5.63251e-05 -0.0560682)
(0.000245791 0.000191052 -0.0560899)
(4.32766e-05 5.96102e-06 -0.0557407)
(0.000166657 -0.000136218 -0.0557371)
(0.000209797 4.28277e-05 -0.0557153)
(0.000176502 -0.000104876 -0.0560664)
(6.73886e-05 -2.49078e-05 -0.0560618)
(0.000231323 6.01758e-05 -0.0560596)
(0.000255017 0.000238376 -0.0557129)
(0.000438491 9.72307e-05 -0.0556817)
(0.000498218 0.000348615 -0.0556686)
(0.000163879 -1.1415e-05 -0.0560347)
(0.000308141 0.000153349 -0.0560504)
(0.000283076 0.000186162 -0.0560182)
(0.000436 0.000287519 -0.0560586)
(3.38291e-05 -6.16297e-05 -0.0557605)
(5.65069e-05 -3.58681e-05 -0.0561086)
(0.000234402 0.000216947 -0.0556905)
(0.000326523 7.68012e-05 -0.0557176)
(0.00046807 0.000271012 -0.0556743)
(0.00013054 -3.5911e-05 -0.0560349)
(0.000338632 9.93734e-05 -0.0560222)
(0.000275476 9.05335e-05 -0.0560516)
(0.000440324 0.000224233 -0.056057)
(1.91055e-05 1.2863e-05 -0.0557667)
(4.24793e-05 -2.12659e-05 -0.0557943)
(0.00020405 0.000108645 -0.0557494)
(0.000139303 -3.58857e-05 -0.0560893)
(3.39823e-05 -6.63605e-05 -0.0561516)
(0.000244555 3.56849e-05 -0.0561047)
(0.000248233 7.98441e-05 -0.055722)
(0.000140613 5.96235e-05 -0.0558228)
(0.000275079 8.94323e-05 -0.0557192)
(8.11886e-05 -1.99772e-05 -0.0561511)
(0.000248903 4.72533e-05 -0.0560826)
(9.9023e-05 5.22611e-05 -0.0561802)
(0.00028558 7.80277e-05 -0.056094)
(0.000119646 -7.52626e-05 -0.0563069)
(0.000176945 -7.92027e-05 -0.0565754)
(0.000180452 -2.02398e-05 -0.0563559)
(0.000191008 -7.487e-05 -0.0563048)
(0.000290805 0.000110036 -0.0563055)
(0.000129157 -2.85203e-05 -0.0566338)
(0.000188736 2.2325e-05 -0.0565577)
(0.000225563 0.000135882 -0.0565849)
(6.54558e-05 -1.7268e-05 -0.0562773)
(0.000136548 -0.000115724 -0.0562793)
(0.000194501 2.78355e-05 -0.0562585)
(0.000162019 -0.00011417 -0.0565292)
(5.95682e-05 -3.76853e-05 -0.0565277)
(0.000194864 2.09284e-05 -0.0565138)
(0.000240841 0.00018509 -0.0562687)
(0.000354736 7.80396e-05 -0.0562459)
(0.000438032 0.000266613 -0.0562674)
(0.000150054 -4.23014e-05 -0.056515)
(0.000263263 9.21309e-05 -0.0565316)
(0.000202798 0.000100866 -0.0565138)
(0.000350778 0.000166784 -0.056562)
(3.08943e-05 -6.39196e-05 -0.0563122)
(4.76293e-05 -5.67359e-05 -0.0565744)
(0.000212506 0.000144681 -0.0562524)
(0.000272353 6.254e-05 -0.0562703)
(0.000388423 0.000201993 -0.0562666)
(9.73464e-05 -4.84442e-05 -0.056515)
(0.000250831 2.29517e-05 -0.0565147)
(0.000216612 4.5132e-05 -0.0565282)
(0.000309358 0.000121852 -0.0565578)
(2.59118e-05 2.35784e-06 -0.0563204)
(3.06842e-05 -1.32325e-05 -0.0563633)
(0.000186267 8.8187e-05 -0.0563145)
(0.000101903 -4.46617e-05 -0.0565718)
(2.29435e-05 -6.91012e-05 -0.0566295)
(0.000188005 8.61644e-06 -0.0565828)
(0.000203732 5.93609e-05 -0.0563067)
(0.000110369 5.64303e-05 -0.0563968)
(0.000216334 8.70914e-05 -0.0563065)
(4.94376e-05 -1.99437e-05 -0.0566389)
(0.000151979 2.21802e-05 -0.0565837)
(7.45295e-05 4.96017e-05 -0.0566671)
(0.000168378 7.52727e-05 -0.0565901)
(0.000140168 -8.45595e-05 -0.0567009)
(0.000112181 -8.34116e-05 -0.0567909)
(0.000202162 -3.76985e-05 -0.0567659)
(0.000165375 -9.71129e-05 -0.0567113)
(0.000239977 2.57567e-05 -0.0567184)
(0.000105293 -4.12062e-05 -0.0568656)
(0.000157141 -3.81569e-05 -0.0567874)
(0.000173831 3.98601e-05 -0.0568185)
(7.614e-05 -5.50714e-05 -0.0566518)
(9.50233e-05 -0.000104666 -0.056648)
(0.000140817 -2.65737e-05 -0.0566324)
(0.000110754 -9.23932e-05 -0.0567288)
(7.32493e-05 -7.91648e-05 -0.0567231)
(0.000115251 -4.8457e-05 -0.0567165)
(0.000177502 5.72525e-05 -0.0566586)
(0.000196896 -1.82062e-05 -0.0566424)
(0.000274579 4.10089e-05 -0.0566923)
(0.000116285 -9.76783e-05 -0.0567324)
(0.000179306 3.02322e-05 -0.0567435)
(0.000125792 -2.58441e-05 -0.0567297)
(0.000165514 -3.89072e-05 -0.0568272)
(2.39213e-05 -6.89289e-05 -0.0566953)
(3.02687e-05 -9.5273e-05 -0.0567763)
(0.000113774 5.87818e-06 -0.0566412)
(0.000145562 -4.47055e-06 -0.0566522)
(0.000170503 3.28857e-05 -0.056685)
(3.45806e-05 -7.34061e-05 -0.0567251)
(0.00011387 -5.66136e-05 -0.0567254)
(0.000133294 -2.60801e-05 -0.0567319)
(9.91885e-05 -3.65376e-05 -0.0568112)
(-1.11678e-05 -1.67489e-05 -0.0567022)
(8.04282e-06 -1.71452e-05 -0.0567541)
(9.60904e-05 3.72956e-05 -0.0567058)
(3.22928e-05 -5.32899e-05 -0.0567753)
(9.54377e-06 -8.21722e-05 -0.0568352)
(7.82094e-05 -3.45253e-05 -0.0567859)
(5.12227e-05 2.29498e-05 -0.0567154)
(5.66872e-05 5.23039e-05 -0.056794)
(3.91661e-05 7.27392e-05 -0.056718)
(-3.38116e-06 -1.18461e-05 -0.0568509)
(-5.73354e-07 -4.12319e-06 -0.056798)
(3.23389e-05 4.34689e-05 -0.0568789)
(-1.96894e-05 6.58703e-05 -0.0568153)
(0.000111196 -8.87956e-05 -0.0568283)
(8.00341e-05 -8.66755e-05 -0.0567059)
(0.000153233 -5.69043e-05 -0.0569111)
(0.000138368 -8.14621e-05 -0.0568206)
(0.0001596 -4.57932e-05 -0.0568601)
(9.80793e-05 -6.52476e-05 -0.0567986)
(8.67519e-05 -0.000198268 -0.0567214)
(8.13976e-05 -0.000165502 -0.0567467)
(9.58486e-05 -9.78586e-05 -0.0567625)
(5.45649e-05 -8.34258e-05 -0.0567559)
(6.52737e-05 -9.24623e-05 -0.0567519)
(2.48621e-05 -8.85697e-05 -0.0566406)
(4.0893e-05 -0.000123899 -0.0566313)
(3.40026e-06 -0.000132904 -0.056621)
(0.000121016 -6.75604e-05 -0.0567778)
(2.30651e-05 -0.00012106 -0.0567596)
(5.74497e-05 -0.0001909 -0.0568687)
(5.13866e-05 -0.00012517 -0.0566488)
(-1.7373e-05 -0.000190011 -0.0566599)
(-0.000119592 -0.000300823 -0.0566459)
(-8.7589e-05 -0.000366569 -0.056734)
(1.69011e-05 -9.1929e-05 -0.0568087)
(1.01651e-06 -9.61279e-05 -0.0566786)
(1.10367e-05 -0.000147908 -0.0567541)
(2.98006e-05 -7.30529e-05 -0.0567622)
(-6.76618e-05 -0.000160724 -0.0568511)
(-2.52401e-05 -0.000103601 -0.0566295)
(-0.000184668 -0.000271013 -0.0566366)
(-0.000101608 -0.000173825 -0.0566355)
(-0.000269984 -0.000295194 -0.0567231)
(-1.77152e-05 -4.67609e-05 -0.0568039)
(-5.86859e-06 -4.76841e-05 -0.0568708)
(-4.96932e-06 -3.92261e-05 -0.0568206)
(-0.000124502 -7.05984e-05 -0.0566859)
(-1.21283e-05 -9.53494e-05 -0.0567441)
(-0.000143769 -9.63671e-05 -0.0567007)
(-0.000102103 -2.72027e-05 -0.0568257)
(-7.63474e-07 3.92443e-05 -0.056914)
(-0.000162015 5.17393e-05 -0.0568493)
(-3.06287e-05 -1.17445e-05 -0.0567605)
(-0.00039001 -5.80166e-05 -0.0567135)
(-3.78359e-05 3.63563e-05 -0.0567867)
(-0.000375029 2.33948e-05 -0.0567359)
(5.08374e-05 -9.45203e-05 -0.0564442)
(0.000162434 -8.39751e-05 -0.0565348)
(8.97048e-05 -0.000140447 -0.0564458)
(6.80538e-05 -0.000226166 -0.056492)
(6.49194e-05 -0.000113191 -0.056369)
(3.14358e-06 -7.40979e-05 -0.0563598)
(-7.73309e-05 -0.000206874 -0.0563564)
(-1.87704e-05 -0.000267088 -0.0564027)
(-0.000219348 -0.000334944 -0.0563988)
(-0.000305174 -0.0005749 -0.0565393)
(1.35073e-06 -0.000120641 -0.0564104)
(-0.000223557 -0.000361106 -0.0563902)
(-0.000187774 -0.000166232 -0.0563744)
(-0.000442563 -0.00045986 -0.0565029)
(-6.39565e-05 -7.64713e-05 -0.0564121)
(-4.05372e-05 -2.71637e-05 -0.0564717)
(-0.000180424 -0.000117125 -0.0564276)
(-0.000310853 -0.000100777 -0.0564404)
(-0.000109239 2.03757e-05 -0.0565198)
(-0.000431555 1.20306e-05 -0.0564898)
(0.000213541 0.000507187 -0.0541417)
(0.00063421 -1.77023e-05 -0.0541346)
(0.000508883 0.000451883 -0.054161)
(0.000346523 0.000293576 -0.0542601)
(0.00028972 0.000420619 -0.0543196)
(0.000452934 0.000571212 -0.0543237)
(0.000475807 0.000627813 -0.054354)
(0.000217207 0.000633431 -0.0540531)
(0.000770893 -2.6946e-05 -0.0540167)
(0.000683704 0.00047631 -0.0541521)
(0.000469539 0.000262767 -0.05419)
(0.000646421 0.000367167 -0.0543019)
(0.00057581 0.000386417 -0.0542864)
(0.000708752 0.000475951 -0.0543413)
(0.000294888 0.00104509 -0.0539907)
(0.00104986 -2.85399e-05 -0.0539895)
(0.000825422 0.00103376 -0.0539239)
(0.00060303 0.000527536 -0.0539443)
(0.000618128 0.000755704 -0.0540364)
(0.000831462 0.00109344 -0.0540986)
(0.000753297 0.00124395 -0.054122)
(9.50216e-05 0.000316633 -0.0541034)
(0.000587484 -4.52283e-05 -0.0541703)
(0.00042874 0.00021626 -0.0541714)
(0.000383782 0.000128515 -0.0542627)
(0.000603274 0.000240111 -0.0543269)
(0.000436889 0.00011973 -0.0543024)
(0.000614153 0.000224424 -0.0543697)
(0.000288648 0.000763877 -0.0539318)
(0.00115844 -0.000142777 -0.053928)
(0.00122329 0.000488659 -0.0539092)
(0.000797159 0.000315294 -0.0539131)
(0.00128084 0.000378845 -0.0541726)
(0.000826486 0.000250445 -0.0540318)
(0.00142974 0.000341838 -0.0541427)
(0.000762411 0.0016961 -0.0531059)
(0.00210588 -4.14654e-05 -0.0531258)
(0.00285365 0.00199331 -0.0496893)
(0.00132165 0.000857551 -0.0531886)
(0.00173821 0.00104736 -0.0529319)
(0.00140596 0.0011028 -0.052905)
(0.0019507 0.00120297 -0.0500635)
(0.000115915 0.000130019 -0.0540579)
(0.000752168 9.96423e-05 -0.0540903)
(0.000139557 0.000272241 -0.0540454)
(0.000468075 0.000124366 -0.0541719)
(0.000727922 0.00017251 -0.0542981)
(0.000506168 5.86758e-05 -0.054202)
(0.000692389 0.000142876 -0.0542974)
(-1.6009e-06 0.000226188 -0.0532376)
(0.00133826 0.000237985 -0.0536623)
(-0.000211392 0.0003746 -0.0526071)
(0.000919423 -7.00029e-05 -0.0536319)
(0.00128551 2.83378e-05 -0.0535608)
(0.000998065 0.00015743 -0.0536089)
(0.000973653 0.000159627 -0.0530997)
(0.00309622 0.000365339 -0.037085)
(0.0018893 0.000861682 -0.0477548)
(0.000945529 0.00146436 -0.0168881)
(0.00140082 0.00046922 -0.0490741)
(7.67508e-05 -0.00045155 -0.0369037)
(0.00100053 0.000370969 -0.0457429)
(-3.2397e-05 -0.000690294 -0.0238016)
(0.00031127 0.000497786 -0.0545389)
(0.000613465 0.000129221 -0.0544461)
(0.00053879 0.000610274 -0.054435)
(0.00035127 0.000288482 -0.0547176)
(0.000329799 0.00044804 -0.0547682)
(0.000509889 0.000611406 -0.0547855)
(0.000547859 0.000744957 -0.0547856)
(0.000342326 0.000632233 -0.0544192)
(0.000792385 0.00013329 -0.0544192)
(0.000796553 0.000567897 -0.0543982)
(0.000498918 0.0003022 -0.0546495)
(0.000670332 0.000419466 -0.0547792)
(0.000630635 0.000415097 -0.0547506)
(0.000836183 0.000594663 -0.0547728)
(0.000443897 0.00107483 -0.0543973)
(0.00112511 0.000622804 -0.0543345)
(0.000948909 0.00140747 -0.0541195)
(0.000748102 0.000719542 -0.0545086)
(0.000701673 0.000992677 -0.0545491)
(0.0010176 0.00115033 -0.0545576)
(0.000936301 0.00155243 -0.054492)
(0.000296092 0.000316679 -0.0545061)
(0.000573274 4.05802e-05 -0.0545555)
(0.000648524 0.000270518 -0.0544677)
(0.000379287 0.000121246 -0.0547271)
(0.000674749 0.000274166 -0.0547784)
(0.000455856 0.000126042 -0.0547575)
(0.000782596 0.000264284 -0.0548136)
(0.000893672 0.000750757 -0.0542916)
(0.00120676 0.000166414 -0.0543441)
(0.00150239 0.000443948 -0.0541078)
(0.000908985 0.000431852 -0.0545068)
(0.00139794 0.00060189 -0.0546211)
(0.00105697 0.000269927 -0.0545396)
(0.00177378 0.000513707 -0.0544808)
(0.00141871 0.00168617 -0.0532983)
(0.00210911 0.0011658 -0.0532341)
(0.00245352 0.00165269 -0.0492731)
(0.00159367 0.00118463 -0.054184)
(0.00192036 0.00166417 -0.0533628)
(0.00202287 0.00113289 -0.0533281)
(0.00270601 0.00184435 -0.049521)
(0.000514208 0.000165309 -0.054421)
(0.0007185 0.000106687 -0.054519)
(0.000510258 0.000217507 -0.0543993)
(0.000543492 0.000117371 -0.0546628)
(0.000824892 0.000226028 -0.0547342)
(0.00058787 7.83322e-05 -0.0546683)
(0.000869159 0.000159744 -0.0547285)
(0.00140634 0.000223293 -0.0535496)
(0.0012908 8.91906e-05 -0.054142)
(0.000913705 0.00019313 -0.0529011)
(0.00120026 3.96302e-05 -0.0544027)
(0.00144039 0.000252192 -0.053951)
(0.00132734 0.000190939 -0.0542795)
(0.00139397 0.00023303 -0.0533521)
(0.00374622 0.000693333 -0.0354241)
(0.00157497 0.000185883 -0.0466383)
(0.00117791 -4.15222e-06 -0.0195463)
(0.00205735 0.000688981 -0.0504246)
(0.00182744 0.000409631 -0.034535)
(0.00197185 0.000533687 -0.0463566)
(0.00152391 4.3496e-05 -0.0194098)
(0.000346426 0.000528411 -0.0550669)
(0.000647495 0.000359689 -0.0549762)
(0.000607749 0.000764159 -0.0549587)
(0.000364642 0.000317678 -0.0553092)
(0.000358023 0.000502742 -0.0553441)
(0.000571421 0.000651109 -0.0553767)
(0.000599694 0.000857417 -0.0553828)
(0.000519969 0.000661103 -0.054966)
(0.000826319 0.00033156 -0.0549584)
(0.000934802 0.00071062 -0.0549356)
(0.000529145 0.000340523 -0.0552719)
(0.000711 0.00050475 -0.0553753)
(0.000718528 0.000444319 -0.0553467)
(0.000975521 0.00070715 -0.0553931)
(0.000557436 0.0012534 -0.0549466)
(0.0012478 0.00107552 -0.0548637)
(0.00107927 0.00172827 -0.054664)
(0.00080955 0.000848413 -0.0552172)
(0.000761648 0.00120966 -0.0552287)
(0.00119662 0.00132044 -0.0552289)
(0.00109828 0.00187523 -0.0551695)
(0.000528148 0.000351799 -0.0550346)
(0.000588434 0.000101864 -0.0550823)
(0.00082656 0.000334023 -0.0549849)
(0.00039795 0.000132301 -0.0553284)
(0.000717787 0.000316482 -0.0553698)
(0.000510036 0.000140326 -0.0553452)
(0.000896816 0.000307125 -0.0554061)
(0.0013022 0.000879231 -0.054856)
(0.00135287 0.000330418 -0.0549138)
(0.0018303 0.000642766 -0.0546714)
(0.00101658 0.000507717 -0.0552332)
(0.001537 0.000784081 -0.055297)
(0.00126793 0.000327905 -0.055222)
(0.00207232 0.00063997 -0.0551772)
(0.00171028 0.0021768 -0.0537139)
(0.00258822 0.00164449 -0.0536481)
(0.00295743 0.00219208 -0.0493139)
(0.00190293 0.00155639 -0.0550972)
(0.00223403 0.00223549 -0.0541218)
(0.00254229 0.00147019 -0.0540835)
(0.0035781 0.00272957 -0.0492907)
(0.000848122 0.000219677 -0.0549569)
(0.00077636 9.33803e-05 -0.0550624)
(0.000819698 0.000209349 -0.0549243)
(0.000616217 0.000133672 -0.0552904)
(0.000935689 0.000272469 -0.0553689)
(0.000691599 8.89556e-05 -0.0552881)
(0.00102918 0.000185705 -0.0553482)
(0.00201864 0.000383559 -0.0541126)
(0.00157466 4.78855e-05 -0.0547357)
(0.00152208 0.000173839 -0.0534796)
(0.00145769 0.000105211 -0.055254)
(0.00182482 0.000461339 -0.0547648)
(0.00171166 0.000224637 -0.055094)
(0.0018727 0.000318033 -0.054109)
(0.00373861 0.00130747 -0.0334869)
(0.00247794 0.000435692 -0.046448)
(0.00210559 -3.77195e-05 -0.016511)
(0.0027611 0.00101987 -0.0509522)
(0.00316346 0.000996138 -0.0314082)
(0.00323411 0.000718827 -0.0463849)
(0.002549 0.000258873 -0.014917)
(0.000349826 0.000524148 -0.0556846)
(0.000659816 0.000463243 -0.0556142)
(0.000636395 0.000831573 -0.0556386)
(0.000345836 0.00029213 -0.0559311)
(0.000348114 0.000485015 -0.0559753)
(0.000581293 0.000602857 -0.056024)
(0.00060065 0.000818772 -0.056087)
(0.000590536 0.000655545 -0.0556177)
(0.00081707 0.000400451 -0.0556208)
(0.00100621 0.000773303 -0.0556571)
(0.000499957 0.000319046 -0.0559285)
(0.000680214 0.000478413 -0.0560485)
(0.000690268 0.000414826 -0.0560343)
(0.000972132 0.000691867 -0.0561518)
(0.000607746 0.00134016 -0.0556905)
(0.00134051 0.0012922 -0.0556494)
(0.00112475 0.00192653 -0.0555257)
(0.000801962 0.000828053 -0.0560146)
(0.000726662 0.00120574 -0.0560611)
(0.00122277 0.00131286 -0.056128)
(0.0011092 0.00189837 -0.0561523)
(0.000616811 0.000361355 -0.0556703)
(0.000574868 0.000121122 -0.0556937)
(0.000902713 0.000348167 -0.0556564)
(0.000371257 0.000120254 -0.0559517)
(0.000682652 0.000306697 -0.0560332)
(0.000487693 0.000128529 -0.0559774)
(0.000877937 0.000291911 -0.0560946)
(0.00148217 0.000917733 -0.0556285)
(0.00142105 0.00037646 -0.0556488)
(0.00208073 0.000695761 -0.0555643)
(0.000988107 0.000491278 -0.056026)
(0.00155897 0.000768817 -0.0561742)
(0.00127448 0.000323785 -0.0560589)
(0.00214379 0.000632904 -0.0561674)
(0.00200835 0.002553 -0.0546231)
(0.00288884 0.00183662 -0.0545861)
(0.00365556 0.00290209 -0.0492966)
(0.00203765 0.00167677 -0.0561129)
(0.00239773 0.00241362 -0.0553072)
(0.00275876 0.00167121 -0.0552502)
(0.00379217 0.00293215 -0.0492922)
(0.000974118 0.000247333 -0.0556568)
(0.000780283 8.33624e-05 -0.0556986)
(0.000962703 0.000212053 -0.0556576)
(0.000595986 0.000121087 -0.0559629)
(0.000931095 0.00026514 -0.0561171)
(0.000661887 8.79214e-05 -0.0559781)
(0.00100984 0.000196334 -0.0561021)
(0.00226552 0.00049203 -0.0550738)
(0.00174981 6.57228e-05 -0.0555376)
(0.00191823 0.000175907 -0.0546058)
(0.0014779 0.000109473 -0.0562029)
(0.00203331 0.000450338 -0.0559005)
(0.00170261 0.000211934 -0.0560776)
(0.00209021 0.000322679 -0.055314)
(0.00414589 0.00160554 -0.0301188)
(0.00320641 0.000665105 -0.0462502)
(0.00270911 -6.8536e-05 -0.0115751)
(0.00313963 0.0013088 -0.0517721)
(0.00396254 0.000996788 -0.0272938)
(0.00335184 0.000745764 -0.0462608)
(0.00301655 -0.000132834 -0.00937979)
(0.000314534 0.000407638 -0.0562814)
(0.000573836 0.00038669 -0.0562746)
(0.000564703 0.000693308 -0.0563427)
(0.000277887 0.000186015 -0.0564537)
(0.000285746 0.000320907 -0.0565257)
(0.000464229 0.00039654 -0.0566167)
(0.000488622 0.000553613 -0.0567242)
(0.000514745 0.000486559 -0.0563044)
(0.000652867 0.000320213 -0.0563022)
(0.000855328 0.000612301 -0.056439)