/*--------------------------------*- C++ -*----------------------------------*\
| =========                 |                                                 |
| \\      /  F ield         | OpenFOAM: The Open Source CFD Toolbox           |
|  \\    /   O peration     | Version:  2.2.1                                 |
|   \\  /    A nd           | Web:      www.OpenFOAM.org                      |
|    \\/     M anipulation  |                                                 |
\*---------------------------------------------------------------------------*/
FoamFile
{
    version     2.0;
    format      ascii;
    class       volVectorField;
    location    "14.66426";
    object      U_0;
}
// * * * * * * * * * * * * * * * * * * * * * * * * * * * * * * * * * * * * * //

dimensions      [0 1 -1 0 0 0 0];

internalField   nonuniform List<vector> 
25373
(
(-7.63541e-05 -7.58633e-05 -0.053419)
(0.000190848 2.71039e-05 -0.0533134)
(6.93273e-05 -0.000276079 -0.0534192)
(0.000307954 0.000141091 -0.0532682)
(0.000499783 0.000347251 -0.0532622)
(0.000126784 -8.42442e-05 -0.0533267)
(0.000530525 0.000143473 -0.0532012)
(0.000800479 0.000232562 -0.0520001)
(-0.000286476 -7.10756e-05 -0.0534653)
(0.000114771 5.08757e-07 -0.0532792)
(-0.000114153 4.98703e-05 -0.0525094)
(0.000640555 -0.000224553 -0.0420952)
(0.000138265 7.07492e-05 -0.0537792)
(0.000382059 0.000528568 -0.0539406)
(0.000228938 -5.15778e-05 -0.0537819)
(0.000651996 0.000331185 -0.0538781)
(0.000578551 0.000721201 -0.0537679)
(0.000463123 0.000237778 -0.0539557)
(0.000847806 0.000190747 -0.0537544)
(0.0014877 0.00136043 -0.0521936)
(9.8733e-06 -6.66759e-05 -0.0537715)
(0.000376753 0.000110117 -0.0537699)
(0.00107191 0.000129322 -0.0530867)
(0.00138249 0.000403674 -0.0412232)
(0.000185916 3.88947e-05 -0.0541169)
(0.000232646 0.000128571 -0.0541088)
(0.000199224 -2.58907e-05 -0.0541226)
(0.000319569 0.000101043 -0.0539676)
(0.000445836 0.000354529 -0.0539608)
(0.00028383 -4.28689e-05 -0.0541344)
(0.000589001 0.000103325 -0.0538884)
(0.000986508 0.000511315 -0.0535763)
(0.000146026 -4.52562e-05 -0.0541514)
(0.000609036 -0.00013094 -0.0540838)
(0.00101613 -0.000448172 -0.0537814)
(0.00165781 -0.000697116 -0.0523647)
(0.00018784 5.9853e-05 -0.0546172)
(0.00026352 0.000217679 -0.0545883)
(0.000209629 -1.58903e-05 -0.0546231)
(0.00042432 0.000209327 -0.0545212)
(0.000644729 0.000609202 -0.0544113)
(0.000335658 1.96189e-05 -0.0545994)
(0.000766081 0.000286539 -0.0543935)
(0.00136995 0.000945891 -0.0540338)
(0.000127462 -2.80102e-05 -0.0546563)
(0.000610599 -3.55676e-05 -0.0545268)
(0.00112319 -3.015e-05 -0.0542451)
(0.00177523 0.000397259 -0.0505173)
(0.000182193 6.09088e-05 -0.0551633)
(0.000292729 0.000273495 -0.0551172)
(0.000199204 -1.75319e-05 -0.0551686)
(0.000491669 0.000285652 -0.05507)
(0.000742645 0.000781375 -0.0549656)
(0.000369004 6.51866e-05 -0.055132)
(0.000926068 0.00042063 -0.0549594)
(0.00170892 0.00134471 -0.054546)
(0.000122857 -1.51273e-05 -0.0552048)
(0.000689471 3.07811e-05 -0.0550632)
(0.00147524 0.000134589 -0.0547953)
(0.00278851 0.000998026 -0.0504336)
(0.000171136 5.47544e-05 -0.0557436)
(0.000299471 0.000286732 -0.0557043)
(0.000176428 -1.95353e-05 -0.0557445)
(0.000501682 0.00031672 -0.0556738)
(0.000771981 0.000836432 -0.0556555)
(0.000369688 8.67963e-05 -0.0557175)
(0.000999787 0.000489737 -0.0556342)
(0.00200766 0.00166827 -0.0553655)
(0.000115536 -8.35608e-06 -0.0558011)
(0.000709906 6.2296e-05 -0.0556764)
(0.00162352 0.000194718 -0.0555674)
(0.00330161 0.00129456 -0.0511031)
(0.000153059 2.78646e-05 -0.0562864)
(0.000259213 0.000221115 -0.056268)
(0.000135948 -2.9205e-05 -0.0562859)
(0.000430948 0.000252773 -0.0562612)
(0.000703754 0.000724142 -0.0563748)
(0.000292866 6.18956e-05 -0.0562772)
(0.000841292 0.000410458 -0.0563782)
(0.00188463 0.00156122 -0.0565064)
(8.9009e-05 9.91072e-07 -0.056371)
(0.000568453 4.02463e-05 -0.0563013)
(0.00136558 0.000109879 -0.0565257)
(0.00301364 0.00129747 -0.0522963)
(0.000118337 -2.08368e-05 -0.0566576)
(0.000171901 7.95698e-05 -0.0566508)
(7.72995e-05 -5.58548e-05 -0.0566536)
(0.000223704 5.16189e-05 -0.0566672)
(0.000391764 0.000268323 -0.0569222)
(0.000120359 -1.65684e-05 -0.0566488)
(0.000359394 0.00013422 -0.0569444)
(0.00106844 0.000781805 -0.0576452)
(4.15649e-05 -1.95262e-07 -0.0567669)
(0.000221506 -2.91875e-05 -0.0567483)
(0.000497666 -0.000141518 -0.0573426)
(0.00115662 0.000546519 -0.0539205)
(9.06579e-05 -0.000110844 -0.0567717)
(9.51013e-05 -0.000136782 -0.0567919)
(1.92816e-07 -8.25452e-05 -0.0567613)
(-5.18863e-06 -0.000173875 -0.0568338)
(7.22218e-05 -0.00032972 -0.0572396)
(-8.20851e-05 -0.000102692 -0.056771)
(-0.000225055 -0.000242828 -0.0571852)
(2.13418e-05 -0.000302773 -0.0581571)
(-2.41687e-05 -6.0688e-06 -0.05689)
(-0.000178289 -9.60618e-05 -0.0569239)
(-0.000497237 -0.000448946 -0.0577446)
(-0.00118301 0.000135539 -0.0551605)
(3.01744e-05 -0.000207043 -0.0563737)
(-6.59658e-05 -0.000500528 -0.0563956)
(-0.000120406 -0.000105536 -0.0563596)
(-0.000395807 -0.000509929 -0.0564811)
(-0.000508131 -0.00121367 -0.056971)
(-0.000432692 -0.000227573 -0.0563811)
(-0.0010127 -0.000732238 -0.0570608)
(-0.000707545 -0.00108742 -0.0582372)
(-0.000121565 5.74149e-06 -0.0564772)
(-0.000745268 -0.000193793 -0.0564936)
(-0.0014973 -0.000676535 -0.0574179)
(-0.00244061 -6.29143e-05 -0.0590698)
(-9.08178e-05 -0.000263432 -0.0533683)
(1.7955e-05 4.24162e-05 -0.0539547)
(0.000137038 -0.000368858 -0.0533914)
(-3.10814e-06 -0.000448242 -0.0534207)
(7.39338e-05 -0.000347024 -0.0534256)
(2.44315e-06 -3.94342e-05 -0.0540139)
(0.000116881 6.22434e-06 -0.0538326)
(0.000166219 0.000212708 -0.0537729)
(-0.000168469 -0.000233746 -0.0533703)
(-7.57155e-05 -0.000337548 -0.0533725)
(-8.17938e-05 -0.000248619 -0.0534119)
(6.33855e-05 -4.42704e-05 -0.0539542)
(0.000110681 -0.000104283 -0.0539542)
(0.000211152 4.42574e-05 -0.053803)
(-0.000123742 -0.000233563 -0.0533978)
(0.000152942 -0.000288591 -0.053373)
(0.000184797 7.23791e-06 -0.0533537)
(9.78186e-05 7.58773e-05 -0.0539022)
(0.000190665 2.7295e-05 -0.0537784)
(0.000232216 1.21225e-06 -0.0537164)
(0.000503073 0.000287956 -0.0536363)
(-0.000173327 -0.000240518 -0.0533782)
(0.000130279 -0.00015927 -0.0539594)
(-0.000143058 -4.40416e-05 -0.0533736)
(-0.000111774 -0.000306685 -0.0534052)
(9.94574e-05 -1.00733e-05 -0.0533564)
(0.000220003 -0.000106731 -0.0539018)
(0.000147665 3.63938e-05 -0.0537038)
(0.000150425 1.33763e-05 -0.0537746)
(0.000371554 0.00030422 -0.0536107)
(-0.000363071 -0.000204468 -0.0534362)
(-0.000332249 -0.000105124 -0.0533982)
(-0.000330483 -0.000160901 -0.0534354)
(0.000107399 -8.26867e-05 -0.0538739)
(1.95062e-05 -0.000165539 -0.0540378)
(0.000248343 -4.57897e-05 -0.0537967)
(-0.00052744 -6.62975e-05 -0.0534284)
(-0.000285894 0.000105886 -0.0534776)
(-0.000488563 6.31085e-05 -0.0534259)
(-5.2192e-08 -7.65337e-05 -0.054008)
(1.95628e-05 -3.72449e-05 -0.0537275)
(1.00301e-05 7.50881e-05 -0.0540374)
(6.57057e-05 8.22216e-05 -0.0537043)
(8.64167e-05 -3.02375e-05 -0.0537244)
(7.374e-05 8.02781e-06 -0.0541066)
(-2.95126e-05 -2.2883e-05 -0.0537546)
(0.000143424 -0.000156523 -0.0536979)
(0.000137332 7.6591e-05 -0.0537017)
(-2.06168e-06 -1.02998e-05 -0.054127)
(0.00014888 -9.23659e-05 -0.0541083)
(0.00016809 0.000162251 -0.0540769)
(-6.1855e-05 1.38648e-05 -0.0537645)
(0.000168619 -0.00022522 -0.0537652)
(0.000148968 4.95228e-06 -0.0537361)
(2.79855e-05 -2.77362e-05 -0.0541174)
(0.000128964 -0.000139343 -0.0541194)
(0.000203397 5.58522e-05 -0.0540863)
(0.000149051 1.75195e-05 -0.0537311)
(0.000301006 -0.000248954 -0.0537299)
(0.000441499 0.000164762 -0.0536248)
(0.000145263 8.40552e-05 -0.0540847)
(0.000171999 6.58701e-05 -0.0540966)
(0.00028027 -5.61191e-05 -0.0540764)
(0.000472807 0.000282652 -0.05394)
(6.98755e-05 -0.000121122 -0.053734)
(0.000107511 -0.000143029 -0.0541255)
(-0.000118668 0.000160193 -0.0537183)
(0.000160729 -2.79829e-05 -0.0537286)
(0.000228146 0.000222215 -0.0535971)
(0.000241654 -4.9175e-05 -0.0540907)
(8.12244e-05 0.00011667 -0.0540805)
(0.000217321 -1.19139e-05 -0.0541127)
(0.000333257 0.00023963 -0.0539754)
(-4.15986e-05 -6.83623e-05 -0.05373)
(1.79136e-05 -0.000154532 -0.0537766)
(0.000120555 -5.30051e-05 -0.053732)
(2.54819e-05 -6.87031e-05 -0.0541116)
(3.6116e-05 -0.000141624 -0.0541451)
(0.000206148 -2.74764e-05 -0.0540894)
(-6.86028e-05 -2.76313e-05 -0.0536862)
(1.30799e-05 7.84338e-05 -0.0537928)
(-9.54371e-06 8.72013e-05 -0.0536817)
(3.81993e-05 -5.97268e-05 -0.0541313)
(9.37984e-05 -1.58698e-05 -0.0540215)
(5.01847e-05 6.52102e-05 -0.0541582)
(0.000160128 8.81811e-05 -0.054005)
(4.63391e-07 -8.1419e-05 -0.054146)
(0.000149574 -1.80046e-05 -0.0544958)
(3.89614e-05 2.70403e-05 -0.0541577)
(0.000208921 -0.000209193 -0.0541232)
(0.000267329 8.83062e-06 -0.0541194)
(6.80324e-05 2.17491e-06 -0.0545078)
(0.000140171 7.06878e-05 -0.0544732)
(0.000187059 0.00016846 -0.0544742)
(-8.51732e-05 9.18157e-05 -0.0541492)
(0.00025226 -0.000251057 -0.0541502)
(0.000111012 -4.34772e-05 -0.0541322)
(0.000149553 -9.56097e-05 -0.0544791)
(6.14168e-05 -1.77276e-05 -0.0544801)
(0.000210817 7.08912e-05 -0.0544689)
(0.00016233 0.00026712 -0.0541388)
(0.000490102 -0.000114339 -0.0541283)
(0.000379754 0.000201956 -0.0540226)
(0.000127663 2.16121e-05 -0.054458)
(0.000270596 7.83254e-05 -0.0544608)
(0.000228419 0.000167458 -0.0544195)
(0.000379798 0.000236932 -0.0544057)
(-7.87249e-06 -0.000115591 -0.0541606)
(8.55146e-05 -5.72326e-05 -0.0545096)
(3.32683e-05 0.00025348 -0.0541298)
(0.000352005 -2.63329e-05 -0.0541503)
(0.000291724 0.000169116 -0.0540522)
(0.000184012 -6.01926e-05 -0.0544622)
(0.000307553 8.62208e-05 -0.0544244)
(0.000226306 7.28522e-05 -0.0544662)
(0.000344879 0.000206001 -0.0544135)
(-0.000142779 1.89889e-05 -0.0541248)
(8.85636e-05 -0.000122748 -0.0541697)
(3.62987e-05 7.7485e-05 -0.0541297)
(0.000153452 -7.708e-05 -0.0544897)
(5.03803e-05 -7.80179e-05 -0.0545179)
(0.000190499 -1.31778e-05 -0.0544886)
(-2.20388e-05 8.11379e-05 -0.0540613)
(0.000184588 5.25719e-05 -0.0541828)
(9.92755e-06 8.75786e-05 -0.0540586)
(6.17765e-05 -4.30063e-05 -0.0545175)
(0.000202745 1.33306e-05 -0.0544432)
(7.46811e-05 5.10379e-05 -0.0545382)
(0.000207177 7.74756e-05 -0.0544422)
(3.63031e-05 -6.60925e-05 -0.0546249)
(0.000181646 -3.95801e-05 -0.0549754)
(9.67443e-05 1.46171e-05 -0.0546312)
(0.000204606 -0.000191288 -0.054617)
(0.00028313 6.84171e-05 -0.0545989)
(9.26382e-05 -7.10635e-06 -0.0549764)
(0.000165738 8.95019e-05 -0.0549255)
(0.000215874 0.000181297 -0.0549416)
(-6.63606e-05 7.32413e-05 -0.0546226)
(0.000234529 -0.000236901 -0.0546231)
(0.000153506 -3.26234e-06 -0.0546006)
(0.000180855 -0.000114759 -0.0549472)
(5.31666e-05 4.26258e-07 -0.0549437)
(0.000217299 6.48804e-05 -0.0549473)
(0.000172898 0.000250978 -0.054598)
(0.000493385 -7.15736e-05 -0.0545623)
(0.00043774 0.000290538 -0.0545128)
(0.000142201 -1.26689e-06 -0.0548979)
(0.000297692 0.000111121 -0.0549235)
(0.000251865 0.000205377 -0.0548768)
(0.000413074 0.00028252 -0.0548805)
(2.05927e-05 -0.000105777 -0.0546421)
(7.02453e-05 -3.02317e-05 -0.0549796)
(7.56882e-05 0.000256545 -0.0545746)
(0.000346671 -1.73517e-05 -0.0546064)
(0.000387989 0.000219961 -0.0545318)
(0.000160987 -5.18113e-05 -0.0548984)
(0.000352574 9.33479e-05 -0.0548833)
(0.000252417 8.62332e-05 -0.0549243)
(0.000409766 0.000228113 -0.0548898)
(-0.000108709 1.57939e-05 -0.0546356)
(6.90457e-05 -8.16357e-05 -0.0546445)
(0.000104379 8.62204e-05 -0.0546166)
(0.000164233 -6.16529e-05 -0.0549458)
(4.14647e-05 -6.69688e-05 -0.0549907)
(0.000212002 1.3451e-05 -0.0549598)
(7.84877e-05 7.85791e-05 -0.0545747)
(0.000159426 5.79461e-05 -0.0546683)
(0.000127938 8.98701e-05 -0.0545634)
(7.83466e-05 -3.51835e-05 -0.0549857)
(0.000230667 3.60179e-05 -0.0549132)
(9.01532e-05 5.05616e-05 -0.0550147)
(0.000258666 7.44579e-05 -0.0549244)
(7.96065e-05 -6.35724e-05 -0.0551558)
(0.000191697 -5.69227e-05 -0.0555256)
(0.000134861 8.82205e-07 -0.0551752)
(0.000206266 -0.000126648 -0.0551514)
(0.000303665 0.00010819 -0.0551331)
(0.000106752 -1.24329e-05 -0.0555438)
(0.000187416 7.99136e-05 -0.0554804)
(0.000239248 0.000200702 -0.055499)
(-4.4814e-06 3.76265e-05 -0.0551624)
(0.000198432 -0.000181648 -0.0551609)
(0.000189614 2.73859e-05 -0.0551356)
(0.000185659 -0.000109459 -0.0554968)
(6.39207e-05 -1.00808e-05 -0.0554929)
(0.000235747 7.0968e-05 -0.0554932)
(0.000227878 0.000248529 -0.0551281)
(0.000469225 3.892e-05 -0.0550916)
(0.000488337 0.00034532 -0.0550536)
(0.000162408 -7.89947e-07 -0.0554524)
(0.000316217 0.000147885 -0.055475)
(0.000285572 0.000210318 -0.0554329)
(0.000451883 0.000317994 -0.0554457)
(2.99297e-05 -7.95505e-05 -0.0551732)
(6.19893e-05 -3.19516e-05 -0.0555333)
(0.000180832 0.000241778 -0.0551063)
(0.000342318 4.44451e-05 -0.0551348)
(0.000452591 0.000261708 -0.0550636)
(0.000154337 -3.81989e-05 -0.0554526)
(0.000362153 0.000113508 -0.0554385)
(0.000279288 9.52295e-05 -0.0554755)
(0.00046018 0.0002477 -0.0554535)
(-2.94684e-05 1.4631e-05 -0.0551787)
(5.41037e-05 -4.24937e-05 -0.055193)
(0.00016504 0.000104321 -0.0551541)
(0.000155376 -4.54834e-05 -0.0555046)
(3.90103e-05 -6.65694e-05 -0.0555579)
(0.000242811 3.32792e-05 -0.0555182)
(0.000196382 8.38064e-05 -0.0551211)
(0.000151225 5.91864e-05 -0.0552145)
(0.000228706 9.08261e-05 -0.055106)
(8.69508e-05 -2.33713e-05 -0.0555554)
(0.000257789 5.10327e-05 -0.0554799)
(0.000103335 5.0467e-05 -0.055587)
(0.000299193 7.77836e-05 -0.0554931)
(0.000107311 -6.54949e-05 -0.0557443)
(0.000187282 -6.98056e-05 -0.0561047)
(0.000163564 -7.80971e-06 -0.055779)
(0.000202525 -8.16828e-05 -0.0557432)
(0.000307436 0.000133209 -0.0557306)
(0.000112858 -1.54661e-05 -0.0561373)
(0.00019525 5.63562e-05 -0.0560682)
(0.000245783 0.000191062 -0.0560899)
(4.32874e-05 5.94782e-06 -0.0557406)
(0.000166664 -0.00013623 -0.0557371)
(0.000209805 4.28237e-05 -0.0557153)
(0.000176486 -0.000104862 -0.0560664)
(6.74028e-05 -2.49222e-05 -0.0560618)
(0.000231328 6.01777e-05 -0.0560596)
(0.000255036 0.000238345 -0.0557129)
(0.000438469 9.72104e-05 -0.0556817)
(0.000498232 0.000348606 -0.0556685)
(0.000163878 -1.14164e-05 -0.0560346)
(0.000308149 0.00015336 -0.0560504)
(0.00028311 0.000186162 -0.0560182)
(0.000435962 0.000287496 -0.0560586)
(3.38411e-05 -6.16605e-05 -0.0557605)
(5.65093e-05 -3.58751e-05 -0.0561086)
(0.000234393 0.000216938 -0.0556905)
(0.000326536 7.67704e-05 -0.0557176)
(0.000468066 0.000270981 -0.0556743)
(0.000130556 -3.59225e-05 -0.0560349)
(0.000338639 9.93907e-05 -0.0560222)
(0.000275473 9.05225e-05 -0.0560516)
(0.000440323 0.000224237 -0.056057)
(1.91025e-05 1.28423e-05 -0.0557667)
(4.24791e-05 -2.12611e-05 -0.0557942)
(0.000204029 0.000108635 -0.0557494)
(0.000139294 -3.58777e-05 -0.0560893)
(3.39854e-05 -6.63715e-05 -0.0561516)
(0.00024455 3.56962e-05 -0.0561047)
(0.000248199 7.98545e-05 -0.0557219)
(0.000140622 5.96391e-05 -0.0558228)
(0.000275066 8.94517e-05 -0.0557191)
(8.1195e-05 -1.99629e-05 -0.056151)
(0.000248877 4.72694e-05 -0.0560825)
(9.90333e-05 5.22643e-05 -0.0561802)
(0.000285599 7.80183e-05 -0.0560939)
(0.000119598 -7.5273e-05 -0.0563069)
(0.000176876 -7.91851e-05 -0.0565754)
(0.000180362 -2.02134e-05 -0.0563559)
(0.000191002 -7.48569e-05 -0.0563048)
(0.000290784 0.000110024 -0.0563054)
(0.000129141 -2.85074e-05 -0.0566338)
(0.000188733 2.23368e-05 -0.0565576)
(0.000225586 0.00013591 -0.0565849)
(6.5434e-05 -1.72347e-05 -0.0562773)
(0.000136586 -0.000115741 -0.0562792)
(0.000194467 2.78037e-05 -0.0562585)
(0.000162031 -0.000114184 -0.0565292)
(5.95505e-05 -3.76572e-05 -0.0565277)
(0.000194844 2.09321e-05 -0.0565138)
(0.000240859 0.000185174 -0.0562687)
(0.000354828 7.80371e-05 -0.0562459)
(0.000437972 0.000266553 -0.0562675)
(0.000150074 -4.23325e-05 -0.056515)
(0.000263276 9.21509e-05 -0.0565316)
(0.000202782 0.000100859 -0.0565138)
(0.000350755 0.00016687 -0.056562)
(3.08723e-05 -6.38845e-05 -0.0563121)
(4.76403e-05 -5.67264e-05 -0.0565744)
(0.00021251 0.000144711 -0.0562523)
(0.000272372 6.25729e-05 -0.0562703)
(0.000388431 0.000202017 -0.0562666)
(9.73153e-05 -4.84071e-05 -0.056515)
(0.000250827 2.29191e-05 -0.0565147)
(0.000216602 4.51587e-05 -0.0565282)
(0.000309435 0.000121881 -0.0565578)
(2.5925e-05 2.36469e-06 -0.0563204)
(3.06901e-05 -1.32247e-05 -0.0563633)
(0.000186252 8.82057e-05 -0.0563144)
(0.00010193 -4.46721e-05 -0.0565718)
(2.29349e-05 -6.91134e-05 -0.0566295)
(0.000188048 8.59668e-06 -0.0565828)
(0.000203752 5.9377e-05 -0.0563067)
(0.000110367 5.64169e-05 -0.0563968)
(0.000216343 8.70776e-05 -0.0563065)
(4.94353e-05 -1.99442e-05 -0.0566389)
(0.000152002 2.21638e-05 -0.0565837)
(7.45157e-05 4.95806e-05 -0.0566671)
(0.000168404 7.52552e-05 -0.0565901)
(0.000140262 -8.4568e-05 -0.0567009)
(0.000112177 -8.34335e-05 -0.0567909)
(0.000202183 -3.76894e-05 -0.0567659)
(0.000165426 -9.71016e-05 -0.0567113)
(0.000239986 2.56856e-05 -0.0567184)
(0.000105312 -4.11885e-05 -0.0568656)
(0.000157152 -3.8179e-05 -0.0567875)
(0.000173838 3.98385e-05 -0.0568185)
(7.61736e-05 -5.51176e-05 -0.0566518)
(9.49738e-05 -0.000104632 -0.056648)
(0.000140878 -2.65235e-05 -0.0566323)
(0.00011075 -9.23787e-05 -0.0567289)
(7.328e-05 -7.91786e-05 -0.0567232)
(0.00011522 -4.84674e-05 -0.0567165)
(0.00017749 5.7126e-05 -0.0566586)
(0.000196772 -1.82147e-05 -0.0566425)
(0.000274818 4.10879e-05 -0.0566923)
(0.000116285 -9.76937e-05 -0.0567324)
(0.000179341 3.02838e-05 -0.0567436)
(0.000125863 -2.58441e-05 -0.0567298)
(0.000165367 -3.8982e-05 -0.0568271)
(2.3903e-05 -6.88886e-05 -0.0566953)
(3.02872e-05 -9.52888e-05 -0.0567763)
(0.000113769 5.82915e-06 -0.0566413)
(0.000145537 -4.46825e-06 -0.0566522)
(0.00017049 3.29478e-05 -0.056685)
(3.45964e-05 -7.34158e-05 -0.0567251)
(0.000113864 -5.65939e-05 -0.0567255)
(0.000133297 -2.60848e-05 -0.056732)
(9.91565e-05 -3.65471e-05 -0.0568111)
(-1.11833e-05 -1.67204e-05 -0.0567022)
(8.08017e-06 -1.71371e-05 -0.0567541)
(9.59855e-05 3.7308e-05 -0.0567058)
(3.22969e-05 -5.33087e-05 -0.0567754)
(9.51488e-06 -8.21919e-05 -0.0568352)
(7.83194e-05 -3.4534e-05 -0.056786)
(5.11849e-05 2.29468e-05 -0.0567154)
(5.67445e-05 5.23212e-05 -0.056794)
(3.91296e-05 7.27354e-05 -0.0567181)
(-3.42148e-06 -1.18508e-05 -0.0568509)
(-5.0887e-07 -4.15264e-06 -0.0567981)
(3.22639e-05 4.34652e-05 -0.0568789)
(-1.95077e-05 6.58516e-05 -0.0568153)
(0.000111072 -8.88274e-05 -0.0568283)
(8.01045e-05 -8.66138e-05 -0.056706)
(0.000153064 -5.68683e-05 -0.0569111)
(0.000138446 -8.12672e-05 -0.0568205)
(0.000159599 -4.58109e-05 -0.0568601)
(9.81208e-05 -6.52597e-05 -0.0567987)
(8.66709e-05 -0.000198312 -0.0567214)
(8.13222e-05 -0.000165412 -0.0567469)
(9.59225e-05 -9.78603e-05 -0.0567624)
(5.45987e-05 -8.34153e-05 -0.0567559)
(6.51825e-05 -9.25313e-05 -0.0567518)
(2.49071e-05 -8.86554e-05 -0.0566407)
(4.09169e-05 -0.000123926 -0.0566314)
(3.47953e-06 -0.000132878 -0.0566211)
(0.000121158 -6.74141e-05 -0.0567777)
(2.31421e-05 -0.000120916 -0.0567595)
(5.70955e-05 -0.000191156 -0.0568687)
(5.14687e-05 -0.000125166 -0.0566489)
(-1.74137e-05 -0.000190068 -0.05666)
(-0.000119567 -0.000300824 -0.056646)
(-8.72277e-05 -0.000366189 -0.0567343)
(1.68913e-05 -9.19601e-05 -0.0568087)
(1.04063e-06 -9.61666e-05 -0.0566786)
(1.11963e-05 -0.000147829 -0.0567541)
(2.98892e-05 -7.30639e-05 -0.0567622)
(-6.7686e-05 -0.000160679 -0.056851)
(-2.51465e-05 -0.000103693 -0.0566296)
(-0.00018466 -0.000271107 -0.0566367)
(-0.000101613 -0.000173888 -0.0566355)
(-0.000270085 -0.000295458 -0.0567233)
(-1.77318e-05 -4.67674e-05 -0.0568039)
(-5.88948e-06 -4.76773e-05 -0.0568708)
(-4.94049e-06 -3.91907e-05 -0.0568206)
(-0.000124466 -7.06431e-05 -0.0566859)
(-1.21411e-05 -9.53153e-05 -0.0567441)
(-0.000143729 -9.64135e-05 -0.0567007)
(-0.000102116 -2.71618e-05 -0.0568257)
(-7.67224e-07 3.92587e-05 -0.056914)
(-0.0001619 5.17714e-05 -0.0568494)
(-3.06747e-05 -1.1784e-05 -0.0567605)
(-0.000389944 -5.80878e-05 -0.0567135)
(-3.79102e-05 3.63133e-05 -0.0567868)
(-0.000375006 2.33496e-05 -0.0567359)
(5.0791e-05 -9.45462e-05 -0.0564442)
(0.00016258 -8.40422e-05 -0.0565348)
(8.96802e-05 -0.000140579 -0.0564458)
(6.80895e-05 -0.000226371 -0.056492)
(6.48077e-05 -0.000113099 -0.056369)
(3.10263e-06 -7.40612e-05 -0.0563597)
(-7.74225e-05 -0.000206878 -0.0563564)
(-1.89203e-05 -0.000267139 -0.0564027)
(-0.000219435 -0.000334997 -0.0563988)
(-0.000305359 -0.000575035 -0.0565395)
(1.3155e-06 -0.000120604 -0.0564103)
(-0.000223688 -0.000361089 -0.0563901)
(-0.000187848 -0.000166145 -0.0563743)
(-0.000442635 -0.000459844 -0.056503)
(-6.39451e-05 -7.64178e-05 -0.056412)
(-4.05322e-05 -2.70642e-05 -0.0564716)
(-0.000180505 -0.000117081 -0.0564276)
(-0.000310852 -0.000100722 -0.0564403)
(-0.000109183 2.04492e-05 -0.0565197)
(-0.000431934 1.21237e-05 -0.0564897)
(0.000213598 0.000507247 -0.0541417)
(0.00063425 -1.76513e-05 -0.0541346)
(0.000508907 0.000451956 -0.0541611)
(0.000346533 0.000293593 -0.0542601)
(0.000289733 0.000420682 -0.0543196)
(0.000452942 0.000571176 -0.0543237)
(0.000475817 0.000627854 -0.054354)
(0.000217236 0.000633376 -0.0540532)
(0.000770826 -2.70231e-05 -0.0540167)
(0.000683729 0.000476321 -0.0541521)
(0.000469534 0.000262753 -0.05419)
(0.000646385 0.000367141 -0.0543019)
(0.000575813 0.000386467 -0.0542864)
(0.000708735 0.000475975 -0.0543412)
(0.000295158 0.00104519 -0.0539907)
(0.00104959 -2.87001e-05 -0.0539895)
(0.000825273 0.00103367 -0.0539239)
(0.000602964 0.000527533 -0.0539444)
(0.00061816 0.000755776 -0.0540364)
(0.000831401 0.00109334 -0.0540986)
(0.000753076 0.00124381 -0.0541219)
(9.50022e-05 0.000316621 -0.0541033)
(0.000587536 -4.52259e-05 -0.0541703)
(0.000428767 0.000216234 -0.0541714)
(0.000383768 0.000128517 -0.0542627)
(0.000603255 0.000240096 -0.0543269)
(0.00043692 0.000119747 -0.0543024)
(0.00061413 0.000224398 -0.0543697)
(0.000288521 0.000763944 -0.0539318)
(0.00115844 -0.000142795 -0.053928)
(0.00122319 0.000488575 -0.0539092)
(0.000797171 0.0003153 -0.0539131)
(0.00128097 0.000378824 -0.0541726)
(0.000826502 0.000250337 -0.0540317)
(0.00142969 0.000341786 -0.0541426)
(0.000762098 0.00169611 -0.0531058)
(0.00210587 -4.15128e-05 -0.0531258)
(0.00285365 0.00199328 -0.0496893)
(0.00132176 0.000857704 -0.0531886)
(0.00173817 0.00104736 -0.0529318)
(0.00140588 0.0011028 -0.052905)
(0.00195083 0.00120303 -0.0500635)
(0.000115917 0.00013003 -0.0540579)
(0.000752186 9.96113e-05 -0.0540903)
(0.000139488 0.00027222 -0.0540454)
(0.000468103 0.000124372 -0.0541719)
(0.000727985 0.000172497 -0.0542981)
(0.000506243 5.86725e-05 -0.054202)
(0.000692441 0.000142886 -0.0542974)
(-1.64361e-06 0.000226189 -0.0532377)
(0.00133829 0.00023798 -0.0536623)
(-0.000211529 0.000374577 -0.0526071)
(0.000919463 -7.00521e-05 -0.0536319)
(0.00128548 2.83197e-05 -0.0535608)
(0.000998131 0.000157417 -0.0536089)
(0.000973575 0.000159607 -0.0530996)
(0.00309619 0.000365291 -0.0370849)
(0.00188922 0.000861597 -0.0477548)
(0.000945428 0.00146408 -0.0168878)
(0.00140073 0.000469176 -0.0490741)
(7.66979e-05 -0.000451607 -0.0369036)
(0.00100051 0.000370909 -0.0457429)
(-3.24106e-05 -0.000690487 -0.0238014)
(0.000311246 0.000497761 -0.0545389)
(0.000613471 0.000129244 -0.0544461)
(0.000538803 0.00061026 -0.0544351)
(0.00035127 0.000288444 -0.0547176)
(0.000329755 0.000447986 -0.0547682)
(0.000509877 0.000611391 -0.0547855)
(0.000547785 0.000744947 -0.0547856)
(0.000342409 0.000632245 -0.0544192)
(0.000792405 0.000133281 -0.0544192)
(0.000796501 0.000567915 -0.0543982)
(0.000498922 0.00030224 -0.0546495)
(0.000670323 0.000419522 -0.0547791)
(0.000630659 0.000415125 -0.0547506)
(0.000836177 0.00059461 -0.0547727)
(0.000443861 0.00107477 -0.0543973)
(0.00112518 0.00062294 -0.0543344)
(0.000948781 0.0014074 -0.0541195)
(0.000748196 0.0007195 -0.0545086)
(0.000701591 0.000992573 -0.0545491)
(0.00101774 0.00115036 -0.0545577)
(0.000936628 0.00155268 -0.054492)
(0.000296034 0.000316673 -0.0545061)
(0.000573291 4.05799e-05 -0.0545555)
(0.000648499 0.000270516 -0.0544676)
(0.000379279 0.000121254 -0.0547271)
(0.000674752 0.000274184 -0.0547784)
(0.000455855 0.000126019 -0.0547575)
(0.000782614 0.000264253 -0.0548136)
(0.000893558 0.000750736 -0.0542916)
(0.00120678 0.000166459 -0.0543441)
(0.00150248 0.000443935 -0.0541077)
(0.000909014 0.000431941 -0.0545068)
(0.001398 0.000601874 -0.0546212)
(0.00105704 0.000269934 -0.0545396)
(0.0017741 0.000513831 -0.0544807)
(0.00141877 0.00168616 -0.0532983)
(0.00210899 0.00116581 -0.0532341)
(0.00245373 0.0016528 -0.0492732)
(0.00159369 0.0011845 -0.054184)
(0.00192049 0.00166419 -0.0533628)
(0.00202302 0.00113295 -0.053328)
(0.00270618 0.00184457 -0.0495211)
(0.00051419 0.00016532 -0.054421)
(0.000718518 0.000106698 -0.054519)
(0.000510321 0.00021754 -0.0543993)
(0.000543474 0.000117352 -0.0546628)
(0.000824906 0.000226014 -0.0547342)
(0.00058784 7.83195e-05 -0.0546684)
(0.000869192 0.000159773 -0.0547285)
(0.00140633 0.000223281 -0.0535496)
(0.00129089 8.92209e-05 -0.0541419)
(0.000913705 0.000193128 -0.0529011)
(0.00120015 3.96093e-05 -0.0544027)
(0.00144038 0.000252166 -0.053951)
(0.00132739 0.000190989 -0.0542794)
(0.00139414 0.000233054 -0.053352)
(0.00374622 0.000693209 -0.0354239)
(0.00157501 0.000185872 -0.0466383)
(0.00117792 -4.25321e-06 -0.0195461)
(0.00205737 0.000689049 -0.0504246)
(0.00182745 0.000409643 -0.0345349)
(0.00197189 0.000533725 -0.0463566)
(0.00152405 4.34744e-05 -0.0194097)
(0.000346405 0.000528319 -0.0550669)
(0.000647448 0.000359646 -0.0549761)
(0.000607715 0.000764035 -0.0549587)
(0.000364633 0.00031766 -0.0553092)
(0.00035803 0.000502681 -0.055344)
(0.000571369 0.000651067 -0.0553767)
(0.000599663 0.000857342 -0.0553828)
(0.000519953 0.000661098 -0.0549661)
(0.000826318 0.000331596 -0.0549584)
(0.000934651 0.000710549 -0.0549356)
(0.00052917 0.000340502 -0.0552719)
(0.000710973 0.000504682 -0.0553753)
(0.000718501 0.000444316 -0.0553467)
(0.000975391 0.000707006 -0.0553931)
(0.000557427 0.00125319 -0.0549467)
(0.00124781 0.00107533 -0.0548639)
(0.00107927 0.00172837 -0.0546641)
(0.000809623 0.000848489 -0.0552171)
(0.000761601 0.0012095 -0.0552287)
(0.00119639 0.00132032 -0.0552288)
(0.00109847 0.00187518 -0.0551697)
(0.000528165 0.000351816 -0.0550346)
(0.000588388 0.000101838 -0.0550823)
(0.000826617 0.000334003 -0.0549849)
(0.000397931 0.000132283 -0.0553283)
(0.000717792 0.000316476 -0.0553698)
(0.000509982 0.000140291 -0.0553452)
(0.000896789 0.000307142 -0.0554061)
(0.00130228 0.000879226 -0.0548562)
(0.0013529 0.000330412 -0.054914)
(0.00183064 0.00064288 -0.0546714)
(0.00101645 0.000507663 -0.0552332)
(0.00153699 0.000784172 -0.0552972)
(0.00126788 0.000327878 -0.0552221)
(0.00207211 0.000640131 -0.0551773)
(0.00171024 0.00217666 -0.053714)
(0.00258858 0.0016446 -0.0536481)
(0.0029572 0.00219192 -0.0493138)
(0.0019023 0.00155589 -0.0550973)
(0.00223395 0.00223519 -0.0541216)
(0.00254247 0.00147037 -0.0540832)
(0.00357695 0.00272807 -0.0492904)
(0.000848079 0.000219649 -0.0549569)
(0.00077627 9.33989e-05 -0.0550624)
(0.000819652 0.00020937 -0.0549243)
(0.000616129 0.000133654 -0.0552905)
(0.000935556 0.000272461 -0.0553689)
(0.000691557 8.89863e-05 -0.0552882)
(0.00102908 0.000185686 -0.0553482)
(0.00201857 0.000383494 -0.0541125)
(0.00157453 4.79111e-05 -0.0547357)
(0.00152227 0.000173893 -0.0534795)
(0.00145762 0.000105188 -0.055254)
(0.00182464 0.000461295 -0.0547649)
(0.0017116 0.000224644 -0.0550941)
(0.00187254 0.000317985 -0.054109)
(0.00373858 0.00130747 -0.0334865)
(0.0024778 0.000435809 -0.046448)
(0.00210559 -3.77378e-05 -0.016511)
(0.0027613 0.00102009 -0.0509522)
(0.00316343 0.000995987 -0.0314084)
(0.00323404 0.000718863 -0.0463849)
(0.00254903 0.000258621 -0.0149169)
(0.000349843 0.000524094 -0.0556846)
(0.000659758 0.000463249 -0.0556142)
(0.000636367 0.000831594 -0.0556386)
(0.000345853 0.000292136 -0.055931)
(0.000348117 0.000485017 -0.0559753)
(0.000581347 0.000602945 -0.0560239)
(0.000600716 0.000818863 -0.0560871)
(0.000590514 0.000655566 -0.0556176)
(0.000817118 0.000400433 -0.0556207)
(0.00100616 0.000773237 -0.0556571)
(0.00049992 0.000319035 -0.0559285)
(0.000680299 0.000478518 -0.0560485)
(0.000690324 0.000414845 -0.0560343)
(0.000972207 0.000691923 -0.0561518)
(0.000607839 0.00134016 -0.0556905)
(0.00134047 0.00129231 -0.0556493)
(0.0011248 0.00192685 -0.0555258)
(0.000801791 0.000827801 -0.0560147)
(0.000726803 0.00120583 -0.0560612)
(0.00122307 0.00131332 -0.056128)
(0.00110897 0.00189828 -0.0561524)
(0.000616811 0.000361325 -0.0556702)
(0.000574836 0.000121093 -0.0556936)
(0.000902675 0.000348173 -0.0556564)
(0.000371266 0.00012024 -0.0559517)
(0.000682666 0.000306694 -0.0560332)
(0.000487706 0.000128545 -0.0559774)
(0.00087789 0.000291947 -0.0560946)
(0.00148221 0.000917872 -0.0556285)
(0.00142095 0.000376372 -0.0556488)
(0.00208076 0.00069574 -0.0555645)
(0.000988107 0.000491262 -0.0560259)
(0.00155902 0.000768913 -0.0561742)
(0.00127435 0.000323828 -0.056059)
(0.00214372 0.000632826 -0.0561674)
(0.00200828 0.00255292 -0.0546228)
(0.0028888 0.00183682 -0.0545859)
(0.00365668 0.00290339 -0.0492964)
(0.0020376 0.00167687 -0.0561131)
(0.0023978 0.00241377 -0.055308)
(0.00275857 0.00167129 -0.0552509)
(0.00379308 0.00293314 -0.0492924)
(0.00097394 0.000247315 -0.0556568)
(0.000780286 8.33797e-05 -0.0556985)
(0.000962671 0.000212079 -0.0556576)
(0.000596006 0.000121122 -0.0559628)
(0.000930992 0.000265131 -0.0561171)
(0.000661901 8.79237e-05 -0.0559781)
(0.00100995 0.000196306 -0.0561022)
(0.00226529 0.000492013 -0.0550738)
(0.0017498 6.57632e-05 -0.0555376)
(0.00191813 0.000176033 -0.0546058)
(0.00147783 0.000109508 -0.056203)
(0.00203338 0.000450404 -0.0559003)
(0.00170249 0.000212035 -0.0560777)
(0.00209044 0.000322649 -0.0553139)
(0.0041458 0.00160559 -0.0301192)
(0.00320634 0.000665208 -0.0462501)
(0.00270912 -6.84181e-05 -0.0115753)
(0.00313937 0.00130854 -0.0517722)
(0.00396248 0.000996942 -0.0272936)
(0.00335179 0.000745803 -0.0462608)
(0.00301657 -0.000132657 -0.00937991)
(0.00031453 0.000407678 -0.0562814)
(0.000573929 0.000386721 -0.0562744)
(0.000564808 0.000693374 -0.0563427)
(0.000277929 0.000185932 -0.0564537)
(0.000285794 0.000320918 -0.0565258)
(0.000464203 0.000396519 -0.0566166)
(0.000488676 0.000553716 -0.056724)
(0.000514809 0.000486681 -0.0563043)
(0.000652911 0.000320192 -0.0563021)