/*--------------------------------*- C++ -*----------------------------------*\
| =========                 |                                                 |
| \\      /  F ield         | OpenFOAM: The Open Source CFD Toolbox           |
|  \\    /   O peration     | Version:  2.3.0                                 |
|   \\  /    A nd           | Web:      www.OpenFOAM.org                      |
|    \\/     M anipulation  |                                                 |
\*---------------------------------------------------------------------------*/
FoamFile
{
    version     2.0;
    format      ascii;
    class       volScalarField;
    location    "30/fluid";
    object      p;
}
// * * * * * * * * * * * * * * * * * * * * * * * * * * * * * * * * * * * * * //

dimensions      [1 -1 -2 0 0 0 0];

internalField   nonuniform List<scalar> 
25373
(
-0.0338135131848
-0.0139503142819
-0.0339466867554
-0.0104811432255
-0.0042551647385
-0.0142622244458
-0.0043752533448
0.00265285594039
-0.0401941813694
-0.0100787806607
-0.000810881475194
0.00746223654447
-0.0103869169741
-0.00843900218409
-0.0103654845965
-0.00571507744976
-0.00232255928349
-0.00836467677124
-0.00230174073381
-0.00154688062813
-0.0107230670962
-0.00559727684115
-0.00139069394035
0.000871773216608
-0.00347600812866
0.011614403815
-0.00346250619209
0.0195172863435
0.0340892560078
0.0113748838244
0.0341151454998
0.0434996428621
-0.00525694731865
0.0144945287042
0.0340268370522
0.0365676407445
-0.0114257530156
-0.00886832643894
-0.0114891277277
-0.00655311172331
-0.00310261961982
-0.00889899659554
-0.00303772524061
-0.000322251679066
-0.0112527699411
-0.00745320262578
-0.00288987827942
-0.000396163390422
-0.0202360376173
-0.0199469729031
-0.0202010957344
-0.0185903372125
-0.0171017383083
-0.0199371876068
-0.0170473466167
-0.0150233599085
-0.0188546352175
-0.01863271082
-0.0161512115078
-0.0137284229206
-0.0301959020093
-0.0306502442666
-0.0301809095272
-0.0296901369743
-0.0293547160861
-0.0306788405506
-0.0292901372481
-0.028246635653
-0.0282592470204
-0.0294859396594
-0.0287240472456
-0.0271119781999
-0.041105421793
-0.042556071396
-0.041098928617
-0.0422121862323
-0.0446509495099
-0.0424884440116
-0.0447578873196
-0.0483417983049
-0.0393925702994
-0.0424795058884
-0.0468183519314
-0.0504222940231
-0.0495264105299
-0.0529189665987
-0.0495494786951
-0.054703594762
-0.0645130955146
-0.0529188473951
-0.064703000409
-0.0832393028623
-0.0486226898953
-0.0559364017368
-0.0730471850286
-0.0971374904883
-0.0483570921367
-0.0539174953431
-0.0483821624553
-0.059250937029
-0.0821175946307
-0.0539425301593
-0.0822910382727
-0.132684797254
-0.0494262403926
-0.0621531895731
-0.105038460064
-0.187722687505
-0.0213199355897
-0.0290197934517
-0.0213385413337
-0.0377764980703
-0.072570101406
-0.0290309178602
-0.072646154384
-0.16336700996
-0.0247221312042
-0.0431169579091
-0.112505964652
-0.223308178617
-0.0381806511111
0.0110773201201
-0.039665794876
-0.0373318867395
-0.0280923022278
0.0106309092616
0.00992741699171
0.0129654037742
-0.037388306356
-0.0372980709229
-0.0276719169968
0.00760859356381
0.00762441728878
0.00812969570949
-0.0280044695935
-0.0273313543344
-0.0219820915691
0.00487436129957
0.00679330646533
0.00346131481589
0.010382156197
-0.0376521110136
0.0111941489501
-0.0273981075047
-0.0281346080135
-0.0218971242075
0.00484731798683
0.0034564018857
0.00682892110013
0.0104117025355
-0.0388915622806
-0.0415932016686
-0.0285196485824
0.0103504300938
0.0114287764143
0.0132874178364
-0.0301876857753
-0.0408713209896
-0.027651976164
0.0112079112132
0.0100831207969
0.0112277374693
0.0110796832593
-0.0125006966983
-0.0028711898303
-0.0119060658302
-0.0141118958996
-0.00701483483466
-0.00135190110892
-0.00160140288578
0.00543198772276
-0.0129043663874
-0.0128519042678
-0.00850396491223
-0.00414776623458
-0.00412999544722
-0.000402640672151
-0.0103258913444
-0.01392299094
-0.0083615881145
-0.00258273810298
-0.00222124061677
-0.00657095739372
0.000877394360246
-0.012504365364
-0.00281224883345
-0.0139854535578
-0.0103201404748
-0.00828958603149
-0.00258409483558
-0.00659594864918
-0.0021928520859
0.000898454747714
-0.0142791531178
-0.0119401922869
-0.00703223517991
-0.0016125038287
-0.00104207373553
0.00563825270479
-0.0130048526387
-0.0108013791121
-0.0109594667922
0.00133267191237
0.00049052402082
0.000728806058832
0.00265976984769
-0.0137539540986
-0.0122305255627
-0.0117363655645
-0.0069968311723
-0.00904499432652
-0.0114252126671
-0.00879544309043
-0.00592532615752
-0.0104529676384
-0.0104412908695
-0.00967185328715
-0.0107255945339
-0.0107127889703
-0.00750722676821
-0.00708925892668
-0.0114276760537
-0.0218314068271
-0.00873233958491
-0.00678801316691
-0.0110704694198
-0.0128616469169
-0.0139896994227
-0.012191514273
-0.0114814356808
-0.00700521474466
-0.0218743199952
-0.00874994048449
-0.0110966268223
-0.00675546767245
-0.0128497724232
-0.00705198786217
-0.011572410665
-0.00906351210915
-0.00876770548468
-0.0114568459628
-0.00592852331103
-0.010625173826
-0.00778616931405
-0.0125627592049
-0.00748218130789
-0.00926766203687
-0.00820381853906
-0.00915643341064
-0.0168219400382
-0.0188379731055
-0.0164396396301
-0.0122730102471
-0.0105745551151
-0.0194714303555
-0.0153240380911
-0.0120042420722
-0.0146040089239
-0.0145641740208
-0.0116515476634
-0.017652884106
-0.0175237306332
-0.0134117650785
-0.00993503894054
-0.0144171043705
-0.0189868434458
-0.0160225831841
-0.0126482035521
-0.0173543073926
-0.0187568566867
-0.0167328494849
-0.0187999926278
-0.0144524462403
-0.00987651848494
-0.0189523705812
-0.0160576877493
-0.0174107922711
-0.0126401972934
-0.0187640495827
-0.0121872902539
-0.016498105889
-0.0105290991342
-0.0153450859113
-0.0196279394336
-0.0120401645491
-0.0133374312306
-0.0125747322761
-0.0139785541176
-0.0146183280906
-0.0156865735544
-0.0156116569939
-0.0156460860209
-0.0231521504261
-0.0272303872451
-0.0242400401888
-0.0194686170645
-0.0159887479428
-0.0286010234366
-0.023686180352
-0.0195603267585
-0.021789881649
-0.0217730146566
-0.0172951769296
-0.0259021111135
-0.0259484551304
-0.0209804441529
-0.016547440989
-0.0215675029333
-0.0230672634132
-0.0249258518122
-0.0205066935084
-0.0259067037158
-0.0264633482764
-0.0231245388677
-0.0273297116265
-0.0215768874446
-0.0165018044971
-0.0230180335346
-0.0248969344121
-0.0259341641545
-0.0205390911754
-0.0264949413305
-0.0194433554957
-0.0242154533052
-0.0159910152481
-0.0237615347542
-0.0286731855167
-0.0197055904345
-0.0198755176395
-0.0199642206165
-0.0198788744346
-0.0231851472581
-0.0240718555369
-0.0246372326728
-0.0239900677226
-0.0323159925634
-0.0376057895192
-0.0339998728912
-0.0288305675505
-0.0244600919525
-0.0393979653029
-0.0341384338757
-0.0296392445084
-0.0311455058084
-0.0309904101087
-0.0258720026331
-0.036277511096
-0.0364772008427
-0.0310510457567
-0.0254857397434
-0.031225787498
-0.0318061664788
-0.0356706038572
-0.0306821453962
-0.0367502945491
-0.0372080648175
-0.0323553070732
-0.0374881876356
-0.0312111976856
-0.0254821757023
-0.0317076560252
-0.0357236224059
-0.0367224809729
-0.0307935939853
-0.0371916683091
-0.0288279608238
-0.0339248370078
-0.0245699239174
-0.0342386054646
-0.0393941365139
-0.0298303696332
-0.0292260126111
-0.0293139186008
-0.0290721445579
-0.0336908614406
-0.0348891249329
-0.0350561677011
-0.0347425031242
-0.0430855676728
-0.0480457902186
-0.0450200994181
-0.0398304379099
-0.0354373089466
-0.0499375834664
-0.0452227955829
-0.0412525067362
-0.0415823008325
-0.0416638199868
-0.0363979043455
-0.0467573120147
-0.0466454562142
-0.0418946022096
-0.03639486408
-0.0423504577129
-0.0432878133502
-0.0463661746293
-0.0421764760555
-0.0480544963275
-0.0496078875567
-0.0430036884216
-0.0480872855178
-0.0423454460432
-0.0364091675911
-0.0432892320747
-0.0463265122948
-0.0479742830764
-0.0421300050085
-0.0494922209325
-0.0399102479092
-0.0448025967323
-0.035593490163
-0.0453201255621
-0.0500214464191
-0.0414846985989
-0.0407873505901
-0.0406131302662
-0.0407414859225
-0.0448297509421
-0.0465603360469
-0.0461059515702
-0.0467781900293
-0.0509892846136
-0.0522327276199
-0.0530524135927
-0.0489716131505
-0.0460598825793
-0.0540738081404
-0.0512404610006
-0.0495100416682
-0.0495727849936
-0.0495792448954
-0.0457828215845
-0.0508941467297
-0.0508792799829
-0.0486165908849
-0.0465364496918
-0.0519275234148
-0.0545323529721
-0.0513080894496
-0.0496068848161
-0.0541202346666
-0.057997696843
-0.0511132976066
-0.0522254745034
-0.0520072052146
-0.0466029133276
-0.0546632102023
-0.0512898950531
-0.0541125962583
-0.0495925792425
-0.0579328721035
-0.0489527902362
-0.0530834427634
-0.0461613345285
-0.0512229363645
-0.0540480335087
-0.0495050271832
-0.0511648222867
-0.0497823238912
-0.0516450557472
-0.05091757595
-0.0539177359216
-0.0518857357605
-0.0547173226169
-0.0486580000136
-0.0387901247017
-0.0504450398378
-0.0491992124355
-0.0491865957192
-0.0401434709214
-0.0404335394907
-0.0424960148768
-0.0475179921862
-0.047529179986
-0.0470758423429
-0.037489368037
-0.0374882661263
-0.0389871829304
-0.0485062159642
-0.0517903730993
-0.0570876964611
-0.0385418323164
-0.0411688390473
-0.0426629297233
-0.049984599732
-0.0486967775762
-0.0387323890817
-0.0518042461983
-0.0485470899625
-0.0570978190317
-0.0385118714073
-0.0426325886567
-0.0411469862894
-0.049936732099
-0.0492321158503
-0.0504985447751
-0.0492392014367
-0.0403813289959
-0.0401076873578
-0.0424717279002
-0.0527635259557
-0.0501531565187
-0.0539674981883
-0.0407906371669
-0.0443844834086
-0.041241746978
-0.0461682354147
-0.0202915559538
-0.0207306730637
-0.0236533782896
-0.0286002517569
-0.0197265511813
-0.0197321210471
-0.0245256706477
-0.0268348065815
-0.0260776927154
-0.0339014126829
-0.0203431451818
-0.026075816913
-0.0268592144638
-0.0339405473594
-0.023674331938
-0.0207707874291
-0.0286285540639
-0.0289170472915
-0.0242799030731
-0.0303311391285
-0.00319620840315
-0.0197642093642
-0.0406786217415
-0.00857443197645
-0.0103025892404
-0.0102621666072
-0.012821078419
-0.00845310367236
-0.00840165061514
-0.0492705489483
-0.00738425177477
-0.008981942805
-0.00897094202283
-0.0146309378386
0.00454211855742
-0.0157942010223
-0.0556922479695
-0.00537291889321
-0.00787235855401
-0.00961368738987
-0.0134566344637
-0.0198535400984
-0.00302623414129
-0.040779415888
-0.00861978996531
-0.010292441696
-0.0103043597348
-0.0129137472818
-0.0158525630882
0.00460270048787
-0.0557250887427
-0.00537428678526
-0.00963380713285
-0.00790712260819
-0.0134882699327
-0.00185734250298
-0.00181043548296
-0.0543878790092
-0.00320571091462
-0.00752630177255
-0.00752995760864
-0.0120526641485
-0.029068463303
0.00698589666749
-0.0396781974376
-0.00732200526986
-0.0107757006084
-0.00793896248864
-0.0122325787868
-0.0307714033813
0.0208940376233
-0.0473551158525
-0.00439100488895
-0.0104001476228
-0.00598932283995
-0.0119250183885
-0.0185862321152
0.0183444632311
-0.039640046487
-0.00314245579982
-0.00789573877275
-0.00475713863847
-0.00981299602865
-0.0127144481029
-0.0149847182055
-0.0196353750824
-0.0157221309775
-0.0173075252676
-0.016139678896
-0.0169396912374
-0.0121545861444
-0.0121126864067
-0.0218139429132
-0.0145239837465
-0.0153748117705
-0.0153902837025
-0.018184102818
-0.00940621641176
-0.0136562902882
-0.0228252307263
-0.0129216310386
-0.0141927095385
-0.0149396866588
-0.0167201991304
-0.014979969741
-0.0126377963096
-0.0195848743323
-0.0157737572887
-0.0162164869048
-0.0173624468971
-0.0170242118239
-0.0136546860055
-0.00930728606592
-0.0227774256497
-0.0129635507584
-0.014970909763
-0.0143602807989
-0.0168591074758
-0.00972502764765
-0.00965960006309
-0.0214767904107
-0.0107574144513
-0.0125069463599
-0.0125420480903
-0.0147806470677
-0.0167915555663
-0.00917369333474
-0.0189831150566
-0.0144653286445
-0.0160002884421
-0.0150080774128
-0.0166185702219
-0.0165497486255
-0.00550745964818
-0.0202022732655
-0.0120998902157
-0.0147596989298
-0.0128596133624
-0.0156958034678
-0.0124249985339
-0.00415344669691
-0.0169968511493
-0.00976535279698
-0.0120118838941
-0.0106162642358
-0.0129270375454
-0.0217066527941
-0.0204402604355
-0.0212879752123
-0.0251313889928
-0.0264476597036
-0.0243932121199
-0.0243183214797
-0.0194990549696
-0.019481418286
-0.0222880117086
-0.0240964142389
-0.0239921414721
-0.0240530600312
-0.0252834259358
-0.0185825430722
-0.0191500403204
-0.0211180414941
-0.0230802867635
-0.0234972468478
-0.0234074287519
-0.0237227557919
-0.0204249535184
-0.0216889741337
-0.0212108613633
-0.0251507123873
-0.0244450117826
-0.0265498829092
-0.0243888162511
-0.0191039625357
-0.0184988808668
-0.0210295176172
-0.023139756123
-0.0234107201902
-0.0236085404022
-0.023861994391
-0.0168242814556
-0.0167761479213
-0.0190090592271
-0.0214402427796
-0.0215616189895
-0.0216746564924
-0.0216924844426
-0.0201993157335
-0.0192113816326
-0.020744172841
-0.0239816955349
-0.0239695862646
-0.0244332662535
-0.0242031899319
-0.0187084549059
-0.0167758213939
-0.0194951305921
-0.0223540125122
-0.0226143188841
-0.0225965838066
-0.022883967161
-0.01598595155
-0.0143216697513
-0.0167443713257
-0.0201077556626
-0.0200168691367
-0.020199047578
-0.0201084268423
-0.031977290025
-0.0300331191833
-0.0298979470857
-0.0363883384587
-0.0378472091785
-0.0358770557859
-0.0359021353364
-0.0297026404783
-0.0296857396884
-0.0310089019625
-0.0358964883094
-0.0360987505665
-0.0360729187147
-0.0377431132069
-0.0298626513386
-0.0296134642832
-0.0300458035927
-0.0366185174871
-0.0372667216369
-0.037507960531
-0.0379700961944
-0.0299557544395
-0.0320475808651
-0.0298449167747
-0.0364706915077
-0.0358740974312
-0.037997729904
-0.036039663674
-0.0296208111022
-0.029775592444
-0.0300660046494
-0.0365594289617
-0.0373000359717
-0.0373593896094
-0.0378411405587
-0.0284451456505
-0.0284889759412
-0.0284501008889
-0.0373124418109
-0.0376616555739
-0.0376924611327
-0.0378157069323
-0.0295673368988
-0.0299876010256
-0.0298406164302
-0.0358125596682
-0.0362996577589
-0.0363765448114
-0.0366467862309
-0.0289726222963
-0.0289785126272
-0.0292252781107
-0.0368872613336
-0.0373183524095
-0.037164192138
-0.0376206573252
-0.0269911785922
-0.0272021218311
-0.027033364997
-0.0370027054844
-0.037000844389
-0.0371209063922
-0.0370498484964
-0.0442024886963
-0.0427962704718
-0.0433504500015
-0.0483861681104
-0.0504269424838
-0.0501645582265
-0.0517507378169
-0.0431187047764
-0.0431847443332
-0.0457102147641
-0.0490817471256
-0.0513928563859
-0.0512907289174
-0.0557074207178
-0.0461676549668
-0.0466991556685
-0.0482825702455
-0.054420223098
-0.0572854034015
-0.0591459036734
-0.0626507551491
-0.0427393730294
-0.0442680324984
-0.0434567629927
-0.0483529331357
-0.0500791434434
-0.050505380676
-0.0517280748358
-0.0467432985821
-0.0463112655781
-0.0484101814378
-0.0543627016762
-0.0588557650049
-0.0572846665218
-0.0624656605995
-0.0497623918698
-0.0500148216603
-0.0510523800749
-0.0634329937517
-0.0680337284493
-0.0680100191552
-0.0718263890856
-0.0442742225881
-0.0432797345182
-0.0450312688187
-0.0494617157083
-0.0534103332526
-0.050542876198
-0.0545305076244
-0.0489831514532
-0.0475791908249
-0.0497136976303
-0.0589853794084
-0.0642787809459
-0.0602170094246
-0.0655268162683
-0.0511662307693
-0.050754048304
-0.0519260764325
-0.0694953311035
-0.0725721984885
-0.0700705183845
-0.073950876223
-0.0556852642387
-0.0569783465556
-0.0601599608042
-0.055619060134
-0.0590234812907
-0.062835187545
-0.0681444160374
-0.0590637478386
-0.0592044587226
-0.0664505207266
-0.0588854752348
-0.0658098014041
-0.0658960393346
-0.077002179877
-0.0694200856513
-0.073310359288
-0.0797777048883
-0.0743045912024
-0.0828980935073
-0.0894246535671
-0.1010497673
-0.0570635703838
-0.0557174399343
-0.0602382890784
-0.0555579963963
-0.0627230276344
-0.058917215939
-0.0680333021231
-0.0732705601056
-0.0695889373309
-0.0798719727996
-0.0742932921428
-0.0891837972265
-0.0828711619491
-0.100808959305
-0.0898621576382
-0.0901996910288
-0.0986296564505
-0.104783832554
-0.122876933271
-0.122641485696
-0.146648402761
-0.0632789840139
-0.0574628193958
-0.0652478661035
-0.0607224820782
-0.0730424769675
-0.0627133437266
-0.0760256201932
-0.0838362360832
-0.0759107002363
-0.08702763844
-0.0890099308645
-0.110288441563
-0.0924106598798
-0.116163878891
-0.104300790472
-0.0988229446927
-0.108043914023
-0.134793398578
-0.150832236935
-0.138204577088
-0.156824175398
-0.058169035217
-0.0648288733891
-0.0727580566565
-0.0450494329223
-0.0504536379171
-0.0605263294664
-0.0713364943179
-0.0693490538028
-0.0694857095043
-0.0855112138086
-0.0527224283482
-0.0662430066013
-0.0662664857828
-0.0881030402283
-0.0950342115872
-0.104885427803
-0.122870434626
-0.0822087999094
-0.099314467003
-0.116131822587
-0.141022223677
-0.0648413680528
-0.0582247987437
-0.0728408292785
-0.0449982355145
-0.0604192192261
-0.0504095576926
-0.0712175821715
-0.105042135068
-0.0953280533237
-0.123439046359
-0.082104207501
-0.11582829949
-0.0991931567464
-0.140092401079
-0.162550404602
-0.163668169129
-0.198543222152
-0.151595710897
-0.209281716672
-0.209669178312
-0.319630972694
-0.0798709690527
-0.0648220937549
-0.0838270744737
-0.056036440526
-0.0811030149182
-0.0596053059758
-0.0865163080055
-0.135349003984
-0.111265679472
-0.146287112123
-0.107524292143
-0.174670481356
-0.116248390872
-0.191411292261
-0.221762329045
-0.195397542772
-0.288687287625
-0.169696495984
-0.336237061532
-0.226210181698
-0.423410720887
-0.0341777041531
-0.0465185838492
-0.0585659102615
-0.0528372013057
-0.0528735355003
-0.0780581753268
-0.0883062857102
-0.109673108436
-0.146123751592
-0.0465074067001
-0.034207113457
-0.0586251861969
-0.109730072972
-0.0883915354996
-0.146008111271
-0.128620869255
-0.128705830188
-0.282853663474
-0.0703930131788
-0.0462130582357
-0.0700774440752
-0.191918246069
-0.123658844474
-0.132039770995
-0.240698376658
-0.254997597227
-0.343227272216
-0.334803746835
-0.335142503164
-0.319697849189
-0.26835745908
-0.501850352902
-0.325515260805
-0.367336808455
-0.296449271426
-0.260042076995
-0.275563835062
-0.233442998639
-0.340391303106
-0.26494231464
-0.339747229559
-0.250375443577
-0.438543983763
-0.323910387841
-0.231810204185
-0.451970918875
0.00545978023001
0.0058134414184
0.000791702466415
-0.00669731642574
0.0054704319971
0.00548340920871
-0.00192051175598
0.00367020531311
-0.0043047936004
-0.000570462447976
-0.00829340854606
0.00544570784461
0.00368722959654
-0.000560171243415
-0.00428415201003
-0.00831908662775
0.000811258884005
0.0058425275493
-0.00667482993153
-0.000522721319912
-0.00349473679014
-7.57065319434e-05
-0.00633934425315
-0.0032656412152
-0.0087719301343
-0.0205234734729
-0.033875332785
-0.0124003402922
-0.0281058232254
-0.0280164949836
-0.0533139655286
-0.0471527225026
-0.0685088960969
-0.0852056642014
-0.00322155808178
-0.0205017773416
-0.00872059504802
-0.0338463538099
-0.0471756876671
-0.0852907350118
-0.0684829887373
-0.0169065044992
-0.0394237607375
-0.0216341552541
-0.25413477553
-0.336536642423
-0.308224680125
-0.310493294573
-0.317875468421
-0.217463068276
-0.288844175108
-0.23285728734
-0.363997548397
-0.369026153329
-0.304204520526
-0.315817306285
-0.260560261194
-0.251741974405
-0.298233253547
-0.318515917347
-0.278250995194
-0.182711278695
-0.328720021763
-0.209351558945
-0.287660585643
-0.251283603941
-0.331735417747
-0.260021510419
-0.306951310704
-0.266611294406
-0.219012032898
-0.340289098543
-0.30581924526
-0.312717254199
-0.410400410352
-0.420099294478
-0.370464926932
-0.400052791316
-0.369723589092
-0.323890769832
-0.281081379746
-0.230229273989
-0.385033094913
-0.297514667884
-0.297107387259
-0.227466525472
-0.425612621155
-0.418935339641
-0.331317233786
-0.429345505766
-0.33746507368
-0.29442382223
-0.380224453182
-0.46905202074
-0.364112709847
-0.432123071068
-0.378622137116
-0.330870783956
-0.30865724124
-0.444877591052
-0.361482891203
-0.420897904757
-0.451558184276
-0.383016818089
-0.367296720097
-0.53789083058
-0.344489358003
-0.438112390679
-0.344481146267
-0.452503247586
-0.482099846448
-0.474285704128
-0.427358056067
-0.294951212545
-0.386475899343
-0.367319425728
-0.417020998762
-0.437941330422
-0.421633618676
-0.443628557321
-0.456968854419
-0.302740213423
-0.329841646027
-0.447585574126
-0.328380287151
-0.424056664296
-0.444343896995
-0.370565467427
-0.418892935154
-0.309040290231
-0.442656781161
-0.431625751916
-0.361671028674
-0.479333495292
-0.474626835961
-0.462072126058
-0.431702582143
-0.263555382961
-0.370959685898
-0.330126277082
-0.342350697454
-0.31046040152
-0.305587912262
-0.431667264758
-0.382660947112
-0.396856516298
-0.370826656811
-0.406614551489
-0.344450146096
-0.323708920853
-0.336392126228
-0.423840116016
-0.252585519185
-0.377369860656
-0.359701927003
-0.323247634419
-0.353701635722
-0.395080629149
-0.272991625306
-0.293373257877
-0.253207973644
-0.318172487955
-0.31671414153
-0.309795244312
-0.289065593348
-0.287916381234
-0.433987351629
-0.425119131758
-0.294337866234
-0.348215202701
-0.423146386935
-0.310923331202
-0.390520514346
-0.304497036755
-0.12444712554
-0.124439819221
-0.138131539956
-0.195684404548
-0.194886855128
-0.0498617758049
-0.0855121639586
-0.102776753821
-0.165885236575
-0.310853761251
-0.349721639672
-0.249884282255
-0.353953471819
-0.315647879911
-0.373455115747
-0.343159754153
-0.293797567101
-0.280456375087
-0.331069377416
-0.360414092722
-0.318929488171
-0.351880723537
-0.301599805831
-0.359899106859
-0.317924876862
-0.349143611403
-0.356452177787
-0.323020036756
-0.394801168424
-0.220094306429
-0.366464108855
-0.354498163083
-0.0695632372697
-0.393882282759
-0.26401916287
-0.263971332979
-0.252128513693
-0.251903582245
-0.178742553395
-0.227498807777
-0.259265341858
-0.133120520618
-0.280607142333
-0.0980618679438
-0.273265023737
-0.242820478972
-0.328439884212
-0.146383789949
-0.209189276348
-0.307456171474
-0.110132888066
-0.294196569363
-0.359589895527
-0.371452441762
-0.365019810787
-0.215327017982
-0.515250742274
-0.293701283466
-0.441205101786
-0.363702904164
-0.376211836789
-0.454244347892
-0.335216922576
-0.431006601065
-0.168856915765
-0.305521229993
-0.365381743033
-0.307845299681
-0.422947056005
-0.369457918654
-0.268265170892
-0.408093795906
-0.214399784923
-0.479205437161
-0.314568430804
-0.307113991794
-0.434057476911
-0.237989631185
-0.496233364215
-0.474229373156
-0.256576493032
-0.324274732179
-0.270736779023
-0.188186630455
-0.286905465149
-0.395077381743
-0.470556708731
-0.234162285385
-0.356664373111
-0.338892194927
-0.337220447572
-0.253844724601
-0.256859278314
-0.316139876949
-0.409726583812
-0.19947271725
-0.246267417186
-0.224381957614
-0.264888880238
-0.24644136944
-0.224075714373
-0.265472464136
-0.218454713514
-0.175751146318
-0.227444648956
-0.270989742947
-0.313911450555
-0.294448331099
-0.298334506026
-0.23616207987
-0.0514255060319
-0.30543849247
-0.259097265774
-0.158081333004
-0.1891237447
-0.279094611065
-0.364641073098
-0.0741802269133
-0.262659333307
-0.22147143309
-0.294229803866
-0.172840221548
-0.288278746364
-0.214809627973
-0.193572499403
-0.255143521979
-0.223397368996
-0.0844062358775
-0.383173755329
-0.275236863334
-0.216231492318
-0.193744338754
-0.255992218209
-0.222423576854
-0.0835154156733
-0.383390635855
-0.276117473463
-0.216079539288
-0.149710791401
-0.226615385786
-0.32215831697
-0.309340500883
-0.132366353078
-0.108165598732
-0.0909377133555
-0.139614139637
-0.249012132092
-0.289931583161
-0.445912842699
-0.47508840478
-0.482840027035
-0.497111702852
-0.460213177507
-0.4778696527
-0.4987968958
-0.457299929019
-0.462537411045
-0.482651360101
-0.443359164963
-0.444318576829
-0.460968780285
-0.437812948049
-0.504346410004
-0.538618166903
-0.40993252309
-0.411162176352
-0.456869642035
-0.469500016708
-0.488159652552
-0.400035238117
-0.426091788663
-0.43666199447
-0.474989961361
-0.592129922588
-0.649005366697
-0.388063297984
-0.399198921814
-0.405126598909
-0.417809140614
-0.424416321804
-0.424603913632
-0.433451915946
-0.450705945664
-0.403415600046
-0.417598002439
-0.425452749717
-0.421358021588
-0.504268477111
-0.53112237793
-0.444883621997
-0.434229168039
-0.471811797856
-0.492847788087
-0.44521241041
-0.451712715968
-0.466858682462
-0.464930464866
-0.473960761295
-0.488026230234
-0.43670735303
-0.473767466373
-0.495649400355
-0.448392107478
-0.454817982971
-0.470426611963
-0.431809882975
-0.43100418435
-0.444772525305
-0.437174427369
-0.440372920254
-0.460120069093
-0.45879697028
-0.425976407599
-0.429125957287
-0.431796238211
-0.51516899175
-0.479776875551
-0.539315209529
-0.571591575644
-0.467069236987
-0.457518625866
-0.463503666087
-0.465068989938
-0.483601435695
-0.488637501401
-0.46359529507
-0.446779373253
-0.523654305203
-0.568269117621
-0.454251245225
-0.451702696803
-0.459692961291
-0.488132472645
-0.499016287875
-0.517022095773
-0.470276582248
-0.474036594089
-0.491917727207
-0.470262493979
-0.542786688523
-0.578035091853
-0.445171813346
-0.44988062942
-0.463140069685
-0.443196283933
-0.470042638696
-0.4844541236
-0.441502345183
-0.452449933581
-0.463686203602
-0.467864771022
-0.523237853574
-0.560959501677
-0.446906936973
-0.471521461169
-0.488665561142
-0.397094621025
-0.395198061378
-0.409420399077
-0.450082438931
-0.455130077073
-0.46588780637
-0.444148273499
-0.454208575971
-0.469861288479
-0.453746729066
-0.512618139514
-0.53901226994
-0.478596653281
-0.542505936481
-0.581018663078
-0.456651552694
-0.503089021488
-0.526895866279
-0.485244409984
-0.502275648258
-0.526585300731
-0.391304558485
-0.385650199025
-0.395161012956
-0.447862047029
-0.455233898411
-0.475346046064
-0.412045867651
-0.425553278095
-0.439107814034
-0.405495213925
-0.410980331198
-0.419718923379
-0.405298112491
-0.4109623581
-0.428208664518
-0.377653154497
-0.372282500669
-0.379065060454
-0.429213560541
-0.44913254944
-0.46011462187
-0.447763460186
-0.560233280287
-0.609852122802
-0.40228694687
-0.424924670871
-0.435877066429
-0.37244245595
-0.368318991412
-0.375999163057
-0.39128677572
-0.384661398264
-0.390955622284
-0.401007500902
-0.410046925597
-0.429124101381
-0.387022151669
-0.387608262606
-0.403027367777
-0.333242862969
-0.322066652053
-0.329630984327
-0.406797992851
-0.425993001373
-0.439619762284
-0.374590867697
-0.378965396343
-0.38174361513
-0.39963229933
-0.417183693366
-0.428553667821
-0.432290707995
-0.463006510402
-0.479600618047
-0.475951501031
-0.622021739831
-0.706358722266
-0.368585433519
-0.380860089889
-0.383873240623
-0.456319489929
-0.561433778115
-0.603788831755
-0.376669356666
-0.405210459056
-0.415957905334
-0.33126893843
-0.345216441198
-0.346477612406
-0.42628786923
-0.583526545303
-0.669281019661
-0.365636670206
-0.374356466908
-0.387445103698
-0.336320252855
-0.336755092527
-0.346516372845
-0.351456786866
-0.357938105595
-0.365277459978
-0.307813977888
-0.295629497516
-0.295680031099
-0.387854791981
-0.39044761453
-0.409021174038
-0.422697672447
-0.3889215078
-0.405192329712
-0.42360693278
-0.377137949237
-0.389862402124
-0.40561489982
-0.364848311951
-0.377284522368
-0.392708520576
-0.385201348349
-0.401840825363
-0.42158471572
-0.140259041799
-0.27610239823
-0.0934523934763
-0.157736739566
-0.140845505667
-0.203129740278
-0.0936190459406
-0.15813397202
-0.140629169705
-0.202765491862
-0.103601750677
-0.174538986904
-0.182330559586
-0.10820838949
-0.20109870555
-0.17990620584
-0.216906369
-0.24777463778
-0.247377993478
-0.200475609892
-0.22929214404
-0.223660290049
-0.161527985609
-0.0825773722989
-0.101212960412
-0.27834630269
-0.282649064902
-0.289646804892
-0.316161867764
-0.25656927761
-0.199651252486
-0.268316876408
-0.278965645651
-0.253167059976
-0.250690373485
-0.201748955838
-0.256908745326
-0.209583199541
-0.27784276369
-0.223232202621
-0.226478616334
-0.221241369213
-0.207530034011
-0.246958605467
-0.180154263509
-0.281123519934
-0.287545823046
-0.295520102094
-0.306476992449
-0.307317384467
-0.318805230535
-0.331854579592
-0.328844459095
-0.344507741991
-0.327397772634
-0.0398279190123
-0.00996880040257
-0.000776490141757
0.00745640951793
0.0127786323852
-0.0106498717941
-0.00568185281341
-0.0014329239563
0.000894275375391
0.00233258566666
-0.0052472394544
0.0145371229894
0.0340552125214
0.0365447417738
0.0245257569762
-0.0114679007104
-0.00757655042959
-0.00311912023131
-0.000491680189643
-0.00185022060337
-0.0188745986087
-0.0186580487461
-0.0164429622071
-0.0139148082922
-0.012626317792
-0.0283844981918
-0.0295194811662
-0.0288570675907
-0.0272349891467
-0.0254273661204
-0.0391756801493
-0.0424636196863
-0.0465826862555
-0.050364935712
-0.0513106116932
-0.0486778183977
-0.0559484386762
-0.073057495346
-0.0969279984497
-0.112113628567
-0.0494137519893
-0.0621492265599
-0.105155930369
-0.187440987381
-0.112688113186
-0.0247170118899
-0.0431356305798
-0.112548855995
-0.277124972509
-0.320027626992
-0.0404619180281
-0.0297514102733
-0.0273993317828
0.0110350921133
0.0110004319942
0.00988347551223
0.0109473579852
-0.010699023127
-0.0129520631121
-0.0108577312115
0.00123864414662
0.000518588834764
0.000374360739441
0.00256284802915
-0.00787984812976
-0.0106282544574
-0.0125921414119
-0.00738503119287
-0.00820883993718
-0.00917843468452
-0.00905929729677
-0.0127266025679
-0.013535044043
-0.0141458468385
-0.0144962752822
-0.015456456686
-0.015541650376
-0.0154871847693
-0.0199984611841
-0.0198541884723
-0.0198689326921
-0.0231149094924
-0.0242948400359
-0.0238541089844
-0.0237166966804
-0.0293316836459
-0.0291751425628
-0.0289730677783
-0.0335922159141
-0.0348347218366
-0.0346771293598
-0.0345745944565
-0.0406032284003
-0.0406479321215
-0.040658779467
-0.0446040330813
-0.0459893236749
-0.0465303235917
-0.0466762960037
-0.0498558935056
-0.0512739437391
-0.0517562862363
-0.0508976827176
-0.0518456154125
-0.0538996153504
-0.0546885494854
-0.0501511504162
-0.0527496542441
-0.0539443047538
-0.0408445017894
-0.0412834768614
-0.0444285812998
-0.0462066914703
-0.024253825241
-0.0289185907239
-0.0302969686186
0.0069266028022
-0.0288411731651
-0.0394181248353
-0.00722476799478
-0.00787838171444
-0.010631162689
-0.0120687418488
0.020992564605
-0.03069993049
-0.0472834796809
-0.00427085589268
-0.00587947578388
-0.0103616760166
-0.0118867678233
0.0183105432534
-0.0185681453628
-0.0396535233527
-0.00310026256911
-0.00471733464899