/*--------------------------------*- C++ -*----------------------------------*\
| =========                 |                                                 |
| \\      /  F ield         | OpenFOAM: The Open Source CFD Toolbox           |
|  \\    /   O peration     | Version:  2.3.0                                 |
|   \\  /    A nd           | Web:      www.OpenFOAM.org                      |
|    \\/     M anipulation  |                                                 |
\*---------------------------------------------------------------------------*/
FoamFile
{
    version     2.0;
    format      ascii;
    class       volScalarField;
    location    "30/fluid";
    object      p_rgh_0;
}
// * * * * * * * * * * * * * * * * * * * * * * * * * * * * * * * * * * * * * //

dimensions      [1 -1 -2 0 0 0 0];

internalField   nonuniform List<scalar> 
25373
(
-0.0338135131879
-0.013950314289
-0.0339466867586
-0.0104811432327
-0.00425516474566
-0.0142622244532
-0.00437525335207
0.00265285593354
-0.0401941813729
-0.0100787806684
-0.000810881482466
0.00746223653745
-0.0103869169951
-0.00843900220953
-0.0103654846174
-0.00571507747519
-0.00232255930893
-0.00836467679646
-0.00230174075918
-0.00154688065376
-0.0107230671167
-0.00559727686632
-0.0013906939658
0.000871773191078
-0.00347600816528
0.0116144037789
-0.00346250622886
0.0195172863071
0.0340892559717
0.0113748837882
0.0341151454637
0.0434996428262
-0.00525694735493
0.014494528668
0.0340268370162
0.0365676407088
-0.0114257530673
-0.00886832649045
-0.0114891277794
-0.00655311177491
-0.00310261967128
-0.00889899664705
-0.00303772529208
-0.000322251730272
-0.0112527699926
-0.00745320267726
-0.00288987833075
-0.00039616344146
-0.0202360376835
-0.0199469729692
-0.0202010958006
-0.0185903372787
-0.0171017383742
-0.0199371876729
-0.0170473466827
-0.0150233599742
-0.0188546352838
-0.0186327108861
-0.0161512115737
-0.0137284229861
-0.0301959020894
-0.0306502443466
-0.0301809096074
-0.0296901370543
-0.0293547161659
-0.0306788406307
-0.0292901373279
-0.0282466357325
-0.0282592471008
-0.0294859397395
-0.0287240473253
-0.0271119782792
-0.0411054218863
-0.042556071489
-0.0410989287102
-0.0422121863254
-0.0446509496027
-0.0424884441049
-0.0447578874125
-0.0483417983973
-0.039392570393
-0.0424795059817
-0.0468183520242
-0.0504222941152
-0.0495264106356
-0.0529189667041
-0.0495494788008
-0.0547035948675
-0.0645130956197
-0.0529188475008
-0.0647030005142
-0.0832393029669
-0.0486226900012
-0.0559364018425
-0.0730471851336
-0.0971374905924
-0.048357092254
-0.0539174954602
-0.0483821625728
-0.0592509371462
-0.0821175947474
-0.0539425302767
-0.0822910383896
-0.13268479737
-0.0494262405103
-0.0621531896905
-0.10503846018
-0.18772268762
-0.0213199357179
-0.0290197935796
-0.0213385414621
-0.0377764981984
-0.0725701015337
-0.0290309179885
-0.072646154512
-0.163367010088
-0.0247221313328
-0.0431169580374
-0.11250596478
-0.223308178746
-0.0381806511142
0.0110773201074
-0.0396657948791
-0.0373318867425
-0.0280923022308
0.010630909249
0.00992741697889
0.0129654037615
-0.0373883063591
-0.037298070926
-0.0276719169998
0.00760859355111
0.00762441727616
0.00812969569686
-0.0280044695966
-0.0273313543375
-0.0219820915721
0.00487436128692
0.00679330645257
0.0034613148031
0.0103821561843
-0.0376521110169
0.0111941489374
-0.0273981075079
-0.0281346080168
-0.0218971242105
0.00484731797425
0.00345640187295
0.0068289210875
0.0104117025229
-0.0388915622839
-0.0415932016721
-0.0285196485858
0.0103504300812
0.0114287764018
0.0132874178237
-0.0301876857788
-0.0408713209933
-0.0276519761677
0.0112079112008
0.0100831207845
0.0112277374567
0.0110796832465
-0.0125006967192
-0.0028711898594
-0.0119060658511
-0.0141118959205
-0.0070148348554
-0.00135190113806
-0.00160140291516
0.00543198769365
-0.0129043664082
-0.0128519042886
-0.00850396493297
-0.00414776626369
-0.00412999547619
-0.000402640701102
-0.0103258913653
-0.013922990961
-0.00836158813537
-0.00258273813215
-0.00222124064591
-0.00657095742292
0.000877394331316
-0.0125043653848
-0.00281224886249
-0.0139854535787
-0.0103201404956
-0.00828958605228
-0.00258409486453
-0.00659594867832
-0.00219285211482
0.000898454718861
-0.0142791531385
-0.0119401923076
-0.00703223520059
-0.00161250385745
-0.00104207376468
0.00563825267544
-0.0130048526591
-0.0108013791329
-0.0109594668131
0.0013326718836
0.000490523991951
0.0007288060298
0.00265976981846
-0.0137539541352
-0.0122305256069
-0.0117363656011
-0.00699683120881
-0.00904499436306
-0.0114252127114
-0.00879544313481
-0.00592532620185
-0.010452967675
-0.010441290906
-0.00967185332369
-0.0107255945783
-0.0107127890146
-0.00750722681252
-0.00708925896338
-0.0114276760902
-0.0218314068635
-0.00873233962929
-0.00678801321125
-0.0110704694641
-0.0128616469612
-0.013989699459
-0.0121915143173
-0.0114814357173
-0.00700521478102
-0.0218743200315
-0.00874994052878
-0.0110966268666
-0.00675546771666
-0.0128497724674
-0.00705198789851
-0.0115724107015
-0.0090635121456
-0.00876770552883
-0.0114568460071
-0.0059285233553
-0.0106251738623
-0.00778616935075
-0.0125627592415
-0.00748218135206
-0.00926766208105
-0.00820381858337
-0.00915643345492
-0.0168219400898
-0.0188379731645
-0.0164396396817
-0.0122730102987
-0.0105745551667
-0.0194714304145
-0.0153240381501
-0.0120042421312
-0.0146040089756
-0.0145641740725
-0.0116515477151
-0.0176528841652
-0.0175237306923
-0.0134117651377
-0.00993503899219
-0.0144171044222
-0.0189868434974
-0.0160225832432
-0.0126482036112
-0.0173543074517
-0.0187568567457
-0.0167328495364
-0.0187999926868
-0.0144524462919
-0.00987651853655
-0.0189523706327
-0.0160576878084
-0.0174107923301
-0.0126401973525
-0.0187640496416
-0.0121872903054
-0.0164981059406
-0.0105290991857
-0.0153450859704
-0.0196279394927
-0.0120401646081
-0.0133374312821
-0.0125747323278
-0.0139785541693
-0.0146183281496
-0.0156865736135
-0.015611657053
-0.01564608608
-0.0231521504922
-0.0272303873183
-0.0242400402549
-0.0194686171306
-0.0159887480089
-0.0286010235098
-0.0236861804252
-0.0195603268317
-0.0217898817153
-0.0217730147229
-0.0172951769959
-0.0259021111869
-0.0259484552038
-0.0209804442263
-0.0165474410552
-0.0215675029996
-0.0230672634793
-0.0249258518855
-0.0205066935817
-0.0259067037891
-0.0264633483495
-0.0231245389339
-0.0273297116999
-0.0215768875108
-0.0165018045634
-0.0230180336007
-0.0248969344854
-0.0259341642278
-0.0205390912487
-0.0264949414037
-0.0194433555619
-0.0242154533716
-0.0159910153143
-0.0237615348276
-0.0286731855901
-0.0197055905079
-0.0198755177058
-0.0199642206828
-0.0198788745008
-0.0231851473315
-0.0240718556103
-0.0246372327462
-0.023990067796
-0.0323159926434
-0.0376057896059
-0.0339998729711
-0.0288305676305
-0.0244600920325
-0.0393979653896
-0.0341384339623
-0.029639244595
-0.0311455058885
-0.0309904101889
-0.0258720027133
-0.0362775111829
-0.0364772009296
-0.0310510458436
-0.0254857398234
-0.0312257875781
-0.0318061665588
-0.0356706039439
-0.0306821454829
-0.0367502946359
-0.0372080649042
-0.0323553071533
-0.0374881877224
-0.0312111977657
-0.0254821757824
-0.0317076561052
-0.0357236224927
-0.0367224810597
-0.030793594072
-0.0371916683958
-0.028827960904
-0.0339248370882
-0.0245699239976
-0.0342386055515
-0.039394136601
-0.0298303697201
-0.0292260126913
-0.0293139186811
-0.0290721446381
-0.0336908615277
-0.0348891250198
-0.0350561677881
-0.0347425032111
-0.0430855677659
-0.0480457903181
-0.0450200995112
-0.039830438003
-0.0354373090397
-0.0499375835658
-0.0452227956823
-0.0412525068356
-0.0415823009258
-0.0416638200801
-0.0363979044388
-0.0467573121144
-0.0466454563139
-0.0418946023092
-0.0363948641732
-0.0423504578061
-0.0432878134433
-0.0463661747289
-0.0421764761549
-0.048054496427
-0.049607887656
-0.043003688515
-0.0480872856175
-0.0423454461364
-0.0364091676844
-0.0432892321679
-0.0463265123945
-0.0479742831759
-0.0421300051081
-0.0494922210319
-0.0399102480026
-0.0448025968258
-0.0355934902565
-0.0453201256618
-0.050021446519
-0.0414846986987
-0.0407873506835
-0.0406131303597
-0.0407414860159
-0.044829751042
-0.0465603361466
-0.0461059516701
-0.046778190129
-0.0509892847192
-0.0522327277314
-0.0530524136983
-0.048971613256
-0.0460598826848
-0.0540738082519
-0.0512404611121
-0.0495100417797
-0.0495727850993
-0.0495792450012
-0.0457828216902
-0.0508941468414
-0.0508792800947
-0.0486165909965
-0.0465364497974
-0.0519275235204
-0.0545323530776
-0.0513080895611
-0.0496068849276
-0.0541202347781
-0.0579976969544
-0.0511132977125
-0.0522254746151
-0.0520072053202
-0.0466029134333
-0.0546632103078
-0.0512898951648
-0.0541125963699
-0.0495925793542
-0.057932872215
-0.048952790342
-0.0530834428694
-0.0461613346343
-0.0512229364763
-0.0540480336205
-0.049505027295
-0.0511648223925
-0.0497823239972
-0.051645055853
-0.0509175760618
-0.0539177360334
-0.0518857358725
-0.0547173227287
-0.0486580001308
-0.0387901248245
-0.050445039955
-0.0491992125527
-0.0491865958364
-0.0401434710441
-0.0404335396134
-0.0424960149995
-0.0475179923035
-0.0475291801035
-0.0470758424602
-0.0374893681599
-0.0374882662493
-0.0389871830533
-0.0485062160814
-0.0517903732166
-0.0570876965782
-0.0385418324392
-0.0411688391701
-0.042662929846
-0.0499845998546
-0.0486967776937
-0.0387323892048
-0.0518042463156
-0.0485470900799
-0.0570978191489
-0.0385118715303
-0.0426325887796
-0.0411469864123
-0.0499367322218
-0.0492321159678
-0.0504985448927
-0.0492392015542
-0.040381329119
-0.040107687481
-0.0424717280234
-0.0527635260733
-0.0501531566363
-0.0539674983058
-0.0407906372901
-0.0443844835317
-0.0412417471012
-0.0461682355378
-0.0202915560818
-0.0207306731917
-0.0236533784176
-0.0286002518848
-0.0197265513096
-0.0197321211755
-0.024525670776
-0.0268348067095
-0.0260776928435
-0.0339014128109
-0.0203431453102
-0.0260758170412
-0.0268592145921
-0.0339405474876
-0.0236743320664
-0.0207707875577
-0.0286285541924
-0.0289170474199
-0.0242799032017
-0.030331139257
-0.0031962084397
-0.0197642094003
-0.0406786217777
-0.00857443202073
-0.0103025892847
-0.0102621666515
-0.0128210784632
-0.00845310370858
-0.00840165065139
-0.0492705489841
-0.00738425181907
-0.0089819428492
-0.00897094206701
-0.0146309378826
0.00454211852121
-0.0157942010581
-0.0556922480052
-0.00537291893734
-0.00787235859817
-0.00961368743394
-0.0134566345077
-0.0198535401344
-0.00302623417775
-0.0407794159241
-0.00861979000951
-0.0102924417402
-0.010304359779
-0.0129137473259
-0.015852563124
0.00460270045158
-0.0557250887784
-0.00537428682936
-0.00963380717688
-0.00790712265232
-0.0134882699767
-0.00185734253872
-0.00181043551883
-0.0543878790448
-0.00320571095866
-0.00752630181654
-0.00752995765266
-0.0120526641923
-0.0290684633387
0.00698589663077
-0.0396781974738
-0.00732200531401
-0.0107757006525
-0.00793896253291
-0.0122325788309
-0.0307714034168
0.0208940375868
-0.0473551158883
-0.00439100493298
-0.0104001476668
-0.00598932288415
-0.0119250184325
-0.0185862321507
0.0183444631949
-0.0396400465229
-0.00314245584374
-0.00789573881659
-0.00475713868259
-0.00981299607264
-0.0127144481544
-0.014984718257
-0.0196353751338
-0.0157221310365
-0.0173075253265
-0.0161396789549
-0.0169396912962
-0.0121545861959
-0.0121126864581
-0.0218139429646
-0.0145239838055
-0.0153748118295
-0.0153902837614
-0.0181841028769
-0.00940621646314
-0.0136562903394
-0.0228252307776
-0.0129216310975
-0.0141927095973
-0.0149396867176
-0.0167201991891
-0.0149799697924
-0.0126377963611
-0.0195848743837
-0.0157737573477
-0.0162164869637
-0.0173624469561
-0.0170242118828
-0.0136546860567
-0.00930728611733
-0.0227774257009
-0.0129635508172
-0.0149709098218
-0.0143602808577
-0.0168591075345
-0.00972502769876
-0.00965960011426
-0.0214767904618
-0.01075741451
-0.0125069464185
-0.0125420481489
-0.0147806471262
-0.0167915556177
-0.00917369338639
-0.0189831151081
-0.0144653287035
-0.0160002885009
-0.0150080774718
-0.0166185702808
-0.0165497486766
-0.00550745969965
-0.0202022733167
-0.0120998902745
-0.0147596989884
-0.0128596134212
-0.0156958035265
-0.0124249985848
-0.00415344674812
-0.0169968512004
-0.00976535285549
-0.0120118839525
-0.0106162642944
-0.0129270376039
-0.0217066528601
-0.0204402605015
-0.0212879752783
-0.0251313890659
-0.0264476597767
-0.024393212193
-0.0243183215526
-0.0194990550357
-0.019481418352
-0.0222880117745
-0.0240964143121
-0.0239921415452
-0.0240530601043
-0.0252834260088
-0.0185825431381
-0.0191500403862
-0.0211180415598
-0.0230802868365
-0.0234972469207
-0.0234074288248
-0.0237227558646
-0.0204249535845
-0.0216889741999
-0.0212108614293
-0.0251507124605
-0.0244450118557
-0.0265498829825
-0.0243888163242
-0.0191039626015
-0.0184988809327
-0.0210295176829
-0.0231397561961
-0.0234107202631
-0.0236085404752
-0.0238619944638
-0.0168242815212
-0.016776147987
-0.0190090592926
-0.0214402428523
-0.0215616190621
-0.0216746565651
-0.0216924845152
-0.0201993157995
-0.0192113816987
-0.020744172907
-0.0239816956082
-0.0239695863377
-0.0244332663268
-0.024203190005
-0.0187084549715
-0.0167758214598
-0.0194951306579
-0.0223540125851
-0.0226143189568
-0.0225965838796
-0.0228839672337
-0.0159859516154
-0.0143216698169
-0.0167443713912
-0.0201077557351
-0.0200168692091
-0.0201990476506
-0.0201084269147
-0.0319772901048
-0.0300331192632
-0.0298979471654
-0.0363883385453
-0.037847209265
-0.0358770558724
-0.0359021354228
-0.0297026405582
-0.0296857397683
-0.0310089020423
-0.0358964883961
-0.036098750653
-0.0360729188012
-0.0377431132933
-0.0298626514182
-0.0296134643628
-0.0300458036721
-0.0366185175735
-0.0372667217231
-0.0375079606172
-0.0379700962805
-0.0299557545194
-0.0320475809452
-0.0298449168546
-0.0364706915944
-0.0358740975179
-0.0379977299908
-0.0360396637606
-0.0296208111818
-0.0297755925237
-0.0300660047289
-0.0365594290482
-0.037300036058
-0.0373593896958
-0.0378411406449
-0.0284451457298
-0.0284889760205
-0.0284501009681
-0.037312441897
-0.0376616556598
-0.0376924612186
-0.037815707018
-0.0295673369788
-0.0299876011057
-0.0298406165101
-0.035812559755
-0.0362996578455
-0.0363765448982
-0.0366467863175
-0.0289726223757
-0.0289785127069
-0.0292252781902
-0.03688726142
-0.0373183524956
-0.0371641922245
-0.0376206574113
-0.0269911786713
-0.0272021219103
-0.0270333650761
-0.0370027055702
-0.0370008444746
-0.0371209064781
-0.037049848582
-0.0442024887893
-0.0427962705648
-0.0433504500943
-0.0483861682098
-0.0504269425831
-0.0501645583257
-0.051750737916
-0.0431187048694
-0.0431847444261
-0.0457102148569
-0.049081747225
-0.0513928564852
-0.0512907290166
-0.0557074208169
-0.0461676550595
-0.0466991557612
-0.048282570338
-0.0544202231971
-0.0572854035004
-0.0591459037722
-0.0626507552477
-0.0427393731225
-0.0442680325917
-0.0434567630857
-0.0483529332352
-0.0500791435428
-0.0505053807756
-0.0517280749352
-0.0467432986747
-0.0463112656709
-0.0484101815303
-0.0543627017754
-0.0588557651037
-0.0572846666208
-0.0624656606983
-0.0497623919619
-0.0500148217526
-0.0510523801669
-0.0634329938503
-0.0680337285476
-0.0680100192536
-0.0718263891837
-0.0442742226812
-0.0432797346115
-0.0450312689117
-0.0494617158079
-0.0534103333519
-0.0505428762975
-0.0545305077238
-0.0489831515456
-0.0475791909177
-0.0497136977228
-0.0589853795074
-0.0642787810445
-0.0602170095236
-0.0655268163669
-0.0511662308611
-0.0507540483961
-0.0519260765243
-0.0694953312017
-0.0725721985863
-0.0700705184827
-0.0739508763207
-0.0556852643441
-0.0569783466609
-0.0601599609094
-0.0556190602454
-0.059023481402
-0.0628351876562
-0.0681444161485
-0.0590637479439
-0.059204458828
-0.0664505208317
-0.0588854753463
-0.0658098015154
-0.0658960394459
-0.077002179988
-0.0694200857562
-0.0733103593929
-0.0797777049929
-0.0743045913134
-0.0828980936181
-0.0894246536779
-0.101049767411
-0.0570635704893
-0.05571744004
-0.0602382891838
-0.055557996508
-0.0627230277458
-0.0589172160506
-0.0680333022344
-0.0732705602105
-0.069588937436
-0.0798719729043
-0.0742932922539
-0.0891837973373
-0.0828711620601
-0.100808959416
-0.0898621577424
-0.0901996911331
-0.0986296565543
-0.104783832664
-0.122876933381
-0.122641485806
-0.146648402871
-0.0632789841192
-0.0574628195015
-0.0652478662089
-0.0607224821898
-0.0730424770788
-0.0627133438382
-0.0760256203045
-0.0838362361878
-0.0759107003414
-0.0870276385446
-0.0890099309754
-0.110288441673
-0.0924106599907
-0.116163879002
-0.104300790576
-0.0988229447967
-0.108043914126
-0.134793398688
-0.150832237044
-0.138204577198
-0.156824175507
-0.058169035334
-0.0648288735061
-0.0727580567733
-0.0450494330449
-0.0504536380397
-0.0605263295889
-0.0713364944403
-0.0693490539197
-0.0694857096214
-0.0855112139254
-0.0527224284709
-0.0662430067238
-0.0662664859054
-0.0881030403506
-0.0950342117037
-0.104885427919
-0.122870434742
-0.0822088000317
-0.0993144671251
-0.116131822709
-0.141022223798
-0.06484136817
-0.0582247988611
-0.0728408293956
-0.0449982356374
-0.0604192193489
-0.0504095578155
-0.0712175822942
-0.105042135185
-0.0953280534404
-0.123439046476
-0.0821042076236
-0.115828299612
-0.0991931568687
-0.140092401201
-0.162550404717
-0.163668169244
-0.198543222267
-0.151595711019
-0.209281716793
-0.209669178433
-0.319630972815
-0.0798709691698
-0.0648220938723
-0.0838270745907
-0.0560364406489
-0.0811030150409
-0.0596053060988
-0.0865163081282
-0.1353490041
-0.111265679589
-0.146287112239
-0.107524292265
-0.174670481478
-0.116248390994
-0.191411292382
-0.221762329158
-0.195397542887
-0.288687287737
-0.169696496107
-0.336237061653
-0.22621018182
-0.423410721007
-0.034177704281
-0.046518583977
-0.0585659103892
-0.0528372014336
-0.0528735356283
-0.0780581754546
-0.0883062858378
-0.109673108564
-0.146123751719
-0.0465074068283
-0.0342071135853
-0.058625186325
-0.1097300731
-0.0883915356275
-0.146008111398
-0.128620869383
-0.128705830316
-0.282853663601
-0.070393013307
-0.0462130583641
-0.0700774442034
-0.191918246196
-0.123658844602
-0.132039771124
-0.240698376784
-0.254997597346
-0.343227272333
-0.334803746956
-0.335142503281
-0.319697849309
-0.268357459198
-0.50185035303
-0.325515260929
-0.367336808584
-0.29644927155
-0.260042077124
-0.275563835191
-0.233442998764
-0.34039130323
-0.264942314768
-0.339747229684
-0.250375443705
-0.438543983892
-0.323910387964
-0.231810204308
-0.451970919003
0.00545978009688
0.00581344128533
0.000791702333333
-0.00669731655879
0.00547043186379
0.00548340907527
-0.00192051188934
0.00367020517989
-0.00430479373355
-0.000570462581216
-0.00829340867921
0.00544570771106
0.00368722946307
-0.00056017137679
-0.00428415214352
-0.00831908676115
0.000811258750426
0.00584252741562
-0.00667483006515
-0.00052272145363
-0.00349473692379
-7.57066656726e-05
-0.00633934438682
-0.00326564134827
-0.00877193026732
-0.020523473606
-0.033875332918
-0.0124003404255
-0.0281058233586
-0.0280164951169
-0.0533139656618
-0.0471527226357
-0.0685088962299
-0.0852056643345
-0.00322155821529
-0.020501777475
-0.00872059518156
-0.0338463539434
-0.0471756878004
-0.0852907351449
-0.0684829888706
-0.0169065046328
-0.039423760871
-0.0216341553877
-0.254134775661
-0.336536642553
-0.308224680256
-0.310493294704
-0.317875468553
-0.217463068408
-0.288844175239
-0.232857287471
-0.363997548527
-0.369026153459
-0.304204520656
-0.315817306416
-0.260560261326
-0.251741974536
-0.298233253678
-0.318515917476
-0.278250995323
-0.182711278823
-0.328720021891
-0.209351559071
-0.287660585768
-0.251283604067
-0.331735417872
-0.260021510538
-0.306951310822
-0.266611294527
-0.219012033017
-0.340289098661
-0.305819245381
-0.312717254318
-0.41040041047
-0.420099294598
-0.370464927053
-0.400052791434
-0.369723589213
-0.323890769951
-0.281081379873
-0.230229274117
-0.385033095037
-0.297514668009
-0.297107387384
-0.227466525598
-0.425612621277
-0.418935339763
-0.331317233905
-0.429345505886
-0.337465073801
-0.294423822349
-0.380224453303
-0.469052020868
-0.364112709975
-0.432123071196
-0.378622137242
-0.330870784083
-0.308657241367
-0.444877591179
-0.361482891328
-0.42089790488
-0.4515581844
-0.383016818211
-0.367296720221
-0.537890830708
-0.344489358129
-0.438112390804
-0.344481146393
-0.452503247712
-0.482099846576
-0.474285704257
-0.427358056192
-0.294951212672
-0.386475899469
-0.367319425854
-0.417020998884
-0.437941330544
-0.421633618799
-0.443628557445
-0.456968854541
-0.302740213546
-0.329841646152
-0.447585574249
-0.328380287276
-0.42405666442
-0.444343897119
-0.370565467552
-0.418892935276
-0.309040290354
-0.442656781284
-0.43162575204
-0.361671028799
-0.47933349542
-0.474626836088
-0.462072126184
-0.431702582273
-0.263555383092
-0.370959686029
-0.330126277213
-0.342350697584
-0.31046040165
-0.305587912392
-0.43166726489
-0.382660947244
-0.39685651643
-0.370826656941
-0.406614551621
-0.344450146226
-0.323708920982
-0.336392126359
-0.423840116148
-0.252585519317
-0.377369860787
-0.359701927135
-0.32324763455
-0.353701635852
-0.395080629279
-0.272991625438
-0.293373258009
-0.253207973777
-0.318172488087
-0.31671414166
-0.309795244443
-0.289065593478
-0.287916381366
-0.433987351762
-0.42511913189
-0.294337866367
-0.34821520283
-0.423146387065
-0.310923331333
-0.390520514477
-0.304497036885
-0.124447125673
-0.124439819354
-0.138131540089
-0.195684404679
-0.194886855259
-0.0498617759384
-0.0855121640919
-0.102776753954
-0.165885236707
-0.310853761384
-0.349721639805
-0.249884282389
-0.353953471953
-0.315647880044
-0.37345511588
-0.343159754287
-0.293797567235
-0.28045637522
-0.331069377549
-0.360414092855
-0.318929488304
-0.35188072367
-0.301599805964
-0.359899106993
-0.317924876996
-0.349143611536
-0.35645217792
-0.323020036889
-0.394801168549
-0.220094306553
-0.366464108978
-0.354498163208
-0.0695632373891
-0.393882282878
-0.264019162992
-0.263971333101
-0.252128513812
-0.251903582364
-0.178742553517
-0.227498807892
-0.25926534197
-0.133120520731
-0.280607142448
-0.0980618680567
-0.273265023852
-0.242820479087
-0.328439884331
-0.146383790069
-0.20918927647
-0.307456171596
-0.110132888185
-0.294196569484
-0.359589895646
-0.371452441887
-0.365019810912
-0.215327018105
-0.515250742397
-0.293701283591
-0.44120510191
-0.363702904289
-0.376211836917
-0.454244348021
-0.335216922705
-0.431006601192
-0.168856915892
-0.30552123012
-0.36538174316
-0.30784529981
-0.422947056134
-0.369457918782
-0.268265171019
-0.408093796032
-0.21439978505
-0.479205437288
-0.314568430933
-0.307113991922
-0.434057477039
-0.237989631312
-0.496233364342
-0.474229373283
-0.256576493159
-0.324274732311
-0.270736779155
-0.188186630585
-0.286905465279
-0.395077381873
-0.470556708861
-0.234162285517
-0.356664373232
-0.338892195047
-0.337220447694
-0.253844724721
-0.256859278443
-0.316139877077
-0.409726583939
-0.199472717377
-0.246267417317
-0.224381957745
-0.264888880369
-0.246441369571
-0.224075714504
-0.265472464267
-0.218454713645
-0.17575114645
-0.227444649088
-0.270989743081
-0.313911450689
-0.294448331232
-0.29833450616
-0.236162079986
-0.0514255061451
-0.305438492582
-0.25909726589
-0.158081333117
-0.189123744816
-0.27909461118
-0.364641073217
-0.074180227033
-0.26265933343
-0.221471433213
-0.294229803985
-0.172840221667
-0.288278746485
-0.214809628102
-0.193572499531
-0.255143522108
-0.223397369122
-0.0844062360033
-0.383173755454
-0.27523686346
-0.216231492447
-0.193744338882
-0.255992218337
-0.222423576979
-0.0835154157991
-0.38339063598
-0.276117473588
-0.216079539416
-0.14971079153
-0.226615385914
-0.322158317096
-0.309340501009
-0.132366353204
-0.108165598858
-0.0909377134873
-0.139614139769
-0.249012132223
-0.289931583292
-0.445912842819
-0.475088404902
-0.482840027156
-0.497111702974
-0.460213177635
-0.477869652828
-0.498796895928
-0.457299929147
-0.462537411173
-0.482651360229
-0.443359165091
-0.444318576957
-0.460968780413
-0.437812948176
-0.504346410131
-0.53861816703
-0.409932523212
-0.411162176474
-0.456869642163
-0.469500016836
-0.48815965268
-0.400035238247
-0.426091788793
-0.4366619946
-0.474989961491
-0.592129922719
-0.649005366827
-0.388063298114
-0.399198921943
-0.405126599038
-0.417809140744
-0.424416321934
-0.424603913762
-0.433451916076
-0.450705945794
-0.403415600175
-0.417598002569
-0.425452749847
-0.421358021719
-0.504268477242
-0.531122378061
-0.444883622117
-0.434229168162
-0.471811797979
-0.492847788209
-0.445212410534
-0.451712716092
-0.466858682586
-0.464930464988
-0.473960761417
-0.488026230356
-0.436707353152
-0.473767466495
-0.495649400478
-0.448392107602
-0.454817983095
-0.470426612087
-0.431809883103
-0.431004184478
-0.444772525434
-0.437174427495
-0.440372920381
-0.46012006922
-0.458796970404
-0.425976407723
-0.429125957411
-0.431796238335
-0.515168991874
-0.479776875676
-0.539315209654
-0.571591575769
-0.467069237115
-0.457518625994
-0.463503666215
-0.465068990066
-0.483601435823
-0.488637501528
-0.463595295196
-0.446779373379
-0.52365430533
-0.568269117748
-0.454251245351
-0.451702696929
-0.459692961417
-0.488132472771
-0.499016288001
-0.517022095899
-0.470276582376
-0.474036594217
-0.491917727335
-0.470262494105
-0.54278668865
-0.57803509198
-0.445171813471
-0.449880629546
-0.463140069811
-0.443196284059
-0.470042638822
-0.484454123726
-0.441502345309
-0.452449933707
-0.463686203728
-0.467864771145
-0.523237853697
-0.5609595018
-0.446906937097
-0.471521461293
-0.488665561266
-0.397094621149
-0.395198061502
-0.409420399201
-0.450082439053
-0.455130077195
-0.465887806492
-0.444148273622
-0.454208576094
-0.469861288603
-0.453746729191
-0.512618139639
-0.539012270065
-0.478596653407
-0.542505936606
-0.581018663203
-0.456651552819
-0.503089021614
-0.526895866404
-0.485244410112
-0.502275648386
-0.526585300859
-0.391304558611
-0.385650199151
-0.395161013083
-0.447862047156
-0.455233898538
-0.475346046191
-0.412045867781
-0.425553278225
-0.439107814164
-0.405495214057
-0.410980331329
-0.419718923511
-0.405298112622
-0.410962358231
-0.428208664649
-0.377653154629
-0.3722825008
-0.379065060586
-0.42921356067
-0.44913254957
-0.460114622
-0.447763460316
-0.560233280418
-0.609852122933
-0.402286946999
-0.424924671
-0.435877066559
-0.372442456081
-0.368318991543
-0.375999163188
-0.391286775852
-0.384661398396
-0.390955622416
-0.401007501034
-0.410046925728
-0.429124101512
-0.387022151801
-0.387608262738
-0.403027367909
-0.333242863101
-0.322066652185
-0.329630984459
-0.406797992981
-0.425993001502
-0.439619762414
-0.374590867828
-0.378965396475
-0.381743615261
-0.399632299462
-0.417183693498
-0.428553667953
-0.432290708126
-0.463006510534
-0.479600618179
-0.475951501164
-0.622021739963
-0.706358722398
-0.368585433649
-0.380860090018
-0.383873240753
-0.456319490059
-0.561433778246
-0.603788831886
-0.376669356799
-0.405210459189
-0.415957905467
-0.331268938563
-0.345216441331
-0.34647761254
-0.426287869364
-0.583526545437
-0.669281019795
-0.36563667034
-0.374356467041
-0.387445103831
-0.336320252988
-0.33675509266
-0.346516372978
-0.351456787
-0.357938105729
-0.365277460111
-0.307813978022
-0.29562949765
-0.295680031233
-0.387854792114
-0.390447614663
-0.409021174171
-0.42269767258
-0.388921507934
-0.405192329845
-0.423606932914
-0.377137949371
-0.389862402258
-0.405614899953
-0.364848312085
-0.377284522502
-0.39270852071
-0.385201348483
-0.401840825496
-0.421584715853
-0.140259041934
-0.276102398364
-0.0934523936106
-0.1577367397
-0.140845505801
-0.203129740412
-0.093619046075
-0.158133972154
-0.140629169839
-0.202765491996
-0.103601750811
-0.174538987039
-0.182330559721
-0.108208389625
-0.201098705684
-0.179906205974
-0.216906369135
-0.247774637914
-0.247377993612
-0.200475610027
-0.229292144175
-0.223660290183
-0.161527985744
-0.0825773724335
-0.101212960546
-0.278346302824
-0.282649065037
-0.289646805027
-0.316161867899
-0.256569277745
-0.199651252621
-0.268316876544
-0.278965645786
-0.253167060111
-0.25069037362
-0.201748955973
-0.256908745461
-0.209583199677
-0.277842763825
-0.223232202756
-0.22647861647
-0.221241369349
-0.207530034146
-0.246958605602
-0.180154263645
-0.281123520069
-0.287545823181
-0.295520102229
-0.306476992584
-0.307317384602
-0.31880523067
-0.331854579727
-0.32884445923
-0.344507742126
-0.327397772769
-0.0398279190155
-0.00996880040998
-0.000776490148924
0.00745640951104
0.0127786323783
-0.010649871815
-0.00568185283882
-0.00143292398184
0.00089427534979
0.00233258564102
-0.00524723949072
0.0145371229533
0.0340552124855
0.0365447417382
0.0245257569409
-0.011467900762
-0.00757655048104
-0.00311912028261
-0.000491680240652
-0.00185022065421
-0.0188745986748
-0.0186580488121
-0.0164429622729
-0.0139148083577
-0.0126263178573
-0.0283844982718
-0.0295194812461
-0.0288570676703
-0.0272349892259
-0.0254273661993
-0.0391756802424
-0.0424636197793
-0.046582686348
-0.050364935804
-0.0513106117848
-0.0486778185033
-0.0559484387816
-0.0730574954508
-0.0969279985536
-0.11211362867
-0.0494137521064
-0.0621492266768
-0.105155930485
-0.187440987496
-0.112688113298
-0.0247170120178
-0.0431356307076
-0.112548856122
-0.277124972637
-0.320027627114
-0.0404619180314
-0.0297514102765
-0.0273993317861
0.0110350921007
0.0110004319815
0.00988347549949
0.0109473579723
-0.010699023148
-0.012952063133
-0.0108577312324
0.00123864411754
0.000518588805696
0.000374360710275
0.00256284799986
-0.00787984816661
-0.0106282544939
-0.0125921414485
-0.0073850312372
-0.0082088399816
-0.00917843472885
-0.00905929734116
-0.0127266026196
-0.0135350440946
-0.0141458468902
-0.0144962753411
-0.015456456745
-0.0155416504349
-0.0154871848283
-0.0199984612502
-0.0198541885383
-0.0198689327581
-0.0231149095655
-0.024294840109
-0.0238541090575
-0.0237166967535
-0.0293316837259
-0.0291751426427
-0.0289730678582
-0.0335922160008
-0.0348347219233
-0.0346771294464
-0.0345745945431
-0.0406032284935
-0.0406479322146
-0.04065877956
-0.0446040331808
-0.0459893237744
-0.0465303236911
-0.0466762961031
-0.0498558936111
-0.0512739438445
-0.0517562863418
-0.050897682829
-0.051845615524
-0.0538996154617
-0.0546885495967
-0.0501511505333
-0.0527496543612
-0.0539443048708
-0.0408445019121
-0.041283476984
-0.0444285814224
-0.0462066915928
-0.0242538253689
-0.0289185908518
-0.0302969687464
0.00692660276557
-0.0288411732009
-0.0394181248718
-0.00722476803902
-0.00787838175878
-0.0106311627331
-0.012068741893
0.0209925645687
-0.0306999305255
-0.0472834797169
-0.00427085593674
-0.00587947582808
-0.0103616760606
-0.0118867678673
0.0183105432173
-0.0185681453984
-0.0396535233886
-0.00310026261305
-0.00471733469307