/*--------------------------------*- C++ -*----------------------------------*\
| =========                 |                                                 |
| \\      /  F ield         | OpenFOAM: The Open Source CFD Toolbox           |
|  \\    /   O peration     | Version:  2.3.0                                 |
|   \\  /    A nd           | Web:      www.OpenFOAM.org                      |
|    \\/     M anipulation  |                                                 |
\*---------------------------------------------------------------------------*/
FoamFile
{
    version     2.0;
    format      ascii;
    class       surfaceScalarField;
    location    "30/fluid";
    object      phi_0;
}
// * * * * * * * * * * * * * * * * * * * * * * * * * * * * * * * * * * * * * //

dimensions      [1 0 -1 0 0 0 0];

internalField   nonuniform List<scalar> 
75547
(
0.000236035989964
0.00026820311007
-0.000659245949423
-0.0252702544374
0.000370340622562
-0.127140630752
0.000645725604873
0.000557790372464
0.000270102774343
9.85858889685e-05
0.000198328546152
0.000196815271527
0.000112321833735
-0.000135985688619
-5.23735816737e-05
0.000239246578972
-0.000660005874483
0.000246833290207
-0.0252455542597
0.00053822494702
0.000513908334993
-0.121981845301
0.000315751463147
0.000431368713475
7.65032538016e-05
-0.00020181939926
0.000318869102213
0.000442824054851
7.50280416515e-05
-0.000206503155066
0.00133428618687
-0.11754704895
0.000574961897769
0.000321332644767
-7.90897311355e-05
-0.127246995205
0.00022426047918
0.00020315947095
0.000101661897134
-0.000139230271569
0.000709261436251
0.000627161889985
0.00030984452423
0.000174440862603
0.00135641103139
0.00055502174614
-0.117718029412
0.00106720294764
-0.109192769629
0.00108975117548
0.000204864369578
-0.000632782998123
-2.01488332964e-05
-0.019795738548
0.00127699129399
-0.12135164388
0.000350805220603
0.000193016063861
6.378738837e-06
-6.03602880598e-05
2.90374511191e-05
0.00194407437242
-0.113187527068
6.23683679337e-07
-0.103251944858
0.00138016313612
-4.06614920248e-06
0.0250573155541
4.71898044533e-05
-2.48053894083e-05
-9.44823710682e-05
-0.0249852175981
0.00189646092622
-0.0324507772221
3.81824617385e-05
0.000102758786789
-0.000203088332659
-0.000310175835074
6.65236457623e-05
0.000115861957817
-0.000105212513537
-0.0003590089902
-0.0324052353006
-0.0318095151507
-0.0315752394232
-0.000142165761925
0.025039401493
4.59787216322e-05
-9.5353400264e-05
-1.43767754881e-05
-0.0249756500389
0.00140255722051
0.00145610376403
-0.0305650165185
-5.22389939739e-05
0.000101494719072
-0.000331793334734
-0.000652945060431
-5.03934819564e-05
0.00010880660223
-0.000337112230421
-0.000661768700997
-0.0309611860866
-0.0310080985119
-0.0304302546875
0.00293882317682
-0.0303327457342
-0.0298687586204
-0.0293281354503
-0.0286685557038
0.00101134152857
0.001875488821
0.000205250983267
-0.032576121304
4.39858252765e-05
0.000106695937925
-0.000143389048513
-0.000373698971924
6.01089882905e-05
0.000154762270773
-0.000202183057573
-0.000310907758222
-0.0318867645516
-0.0325047695628
-0.0316954537767
0.00289318733784
0.00105277308263
-0.0303655321805
-0.0293516993136
-0.029929266176
-0.028685899577
0.00209035864588
-0.0277616325589
-0.0269415311101
-0.0269464449023
-0.0259557706983
0.00215426150964
0.0194946107512
5.19786675361e-06
-0.0002293765874
1.91863461735e-05
-0.0192896183768
0.00393423866823
-0.0316336343493
5.9519965212e-05
5.8290115013e-07
-0.000395006567074
-0.00041463287693
-0.0309785743202
-0.0312624287211
-0.0304657907658
9.33316958546e-06
0.00424152099435
-0.029070432085
-0.0277004883235
-0.0285626501861
-0.0271065809267
-1.88479062334e-06
-0.0256959224126
-0.0246749291587
-0.0251069600305
-0.0240576429772
0.00261512438484
2.64976527788e-07
0.0250525230855
3.45052748246e-05
-2.28110137306e-05
4.56138610256e-05
-0.0251098312077
-5.28662954463e-05
-1.14108258835e-05
4.33169842325e-05
0.000371970627542
-0.0328017877125
0.0250516920542
3.2828665662e-05
4.37379058567e-05
-6.33562417058e-06
-0.0251219230016
-0.000193131886107
-0.000195079950569
0.00033674620443
0.000339503927765
-0.0308530548141
-0.000546200798751
-0.000334803462492
0.000345071091818
0.000718763447267
-0.0305155760121
-4.86397871725e-05
-3.31828490961e-05
0.00034867375028
0.000112994879533
-0.0329559672976
-0.00033999254532
-0.000530691570831
0.000714732475404
0.000361907318167
-0.0305714878579
-0.000657564523065
-0.000651380559873
0.000638926034082
0.000640282344625
-0.0277318958547
0.0192276817112
3.20077078654e-05
-6.72904671965e-05
6.29957042047e-06
-0.0191986985223
-0.000248909521334
-8.87514238206e-05
0.000549542531738
8.05624558842e-05
-0.0319260783918
-0.0002194114393
-0.000683752699149
0.00098463425462
0.000153174475463
-0.0293050766767
-0.000415657795293
-0.000918279677024
0.000878554829962
0.000276891964342
-0.0255174317346
0.025285561812
-8.25481717961e-05
0.000144785188131
0.000259258123414
-0.0256070569518
-0.000175454904038
-0.000229785830648
0.0331989241712
0.000219312532396
0.000538894005417
-0.0335518899743
0.0252908136005
-7.79373340384e-05
0.000221069671223
0.000148102088639
-0.0255820480263
-0.000448368477047
-0.000440968858636
0.0310516416626
0.000581197002189
0.000582726338384
-0.0313262276675
0.0306144494854
-0.000780445187423
-0.000599286342226
0.000527587179011
0.000943680869782
-0.0307059860045
-0.000232574319482
-0.000179291809033
0.033320120668
0.000524775309709
0.000225174864606
-0.0336582047138
0.0307092469689
-0.0006030496914
-0.000780152356114
0.000939645834597
0.000541550036746
-0.0308072407927
0.0275661722427
-0.000900130865826
-0.000899795974816
0.00075986176154
0.000758169273367
-0.027284276437
0.0192160338923
-6.12128856688e-06
0.000278817889457
7.38073205826e-06
-0.0194961112253
-0.000573477204222
0.032173616921
-0.000161151024639
0.000846750040154
9.78941755866e-05
-0.0323836329079
0.0293817990887
-0.000371367923167
-0.000985201730572
0.00110315685186
0.000194351243334
-0.0293227375302
0.02522141986
-0.000465985271371
-0.00110395215536
0.000994453616936
0.000291438289258
-0.0249373743395
0.0259130809228
-0.000113116830164
0.000179531375915
0.00023542258328
-0.0262149180518
-0.000234115392357
-0.000267982436266
0.0339118751197
0.00025283708913
0.000468035460695
-0.0341306498409
0.0258687696789
-0.00010456587886
0.000313971894867
0.000152211163938
-0.0262303868588
-0.000486083236517
-0.000493896991467
0.0316327415326
0.000647659233327
0.000662982730871
-0.0319634032688
0.0308612087408
-0.000832339850185
-0.000704471867712
0.000662421011324
0.00110401918762
-0.0310908372218
-0.000232211098721
-0.000324835972733
0.033931606568
0.000558657464969
0.000226209699438
-0.0341594266609
0.0309588848979
-0.00071114731263
-0.000840796251825
0.00110042617339
0.000685810717761
-0.0311931782246
0.0270605053086
-0.00116376462861
-0.00116205784391
0.00104765659528
0.00105739411414
-0.0268397335455
0.0198122042739
-7.15688750497e-05
0.000355245695261
2.8432698944e-05
-0.020124313793
-0.000701375734081
0.0326530500658
-0.000149630091737
0.00102261496359
0.000107871859532
-0.0329325310632
0.0291130400726
-0.000542963733124
-0.00128067832553
0.0014524742641
0.000308521170866
-0.029050393449
0.0244702791819
-0.000784431566828
-0.00148674259935
0.00133031155727
0.000407031120323
-0.0239364476933
0.026610043962
-9.37938364886e-05
0.000122551333531
0.000329190626458
-0.0269679920855
-0.0004274433104
-0.000273135157407
0.0344213925384
0.000294025807713
0.000693761880492
-0.0347086017588
0.0266314749902
-0.000103163782573
0.000327977350892
0.000139832145128
-0.0269961207037
-0.000497438256817
-0.000541048746183
0.032205639003
0.000687013472516
0.000658799300572
-0.0325129647731
0.0313501662956
-0.000893409080829
-0.000770335150715
0.00073788563319
0.00117482304389
-0.0315991307411
-0.00030000010093
-0.000482517840581
0.0344955340195
0.000698619027358
0.000307763685898
-0.0347193987912
0.0314050258546
-0.000736266292914
-0.000979061738636
0.00121753772986
0.000696512225407
-0.0316037477784
0.0266403916199
-0.00137117981311
-0.00135627776728
0.00129505400344
0.00131999546418
-0.0265279835071
0.0204967942875
-0.000117217498611
0.000532656083445
3.11590282581e-05
-0.0209433919006
-0.000838560503375
0.033172388724
-0.000228040479552
0.00118702151024
7.41905358698e-05
-0.0333669997872
0.0290223989664
-0.000568965437218
-0.00153920406093
0.00180552563084
0.000310434361276
-0.0290301894604
0.0233654327725
-0.00105352547024
-0.0018214198493
0.00171039099565
0.000518454361847
-0.0227193328105
0.0273661056659
-5.6418680597e-05
0.000116774640048
0.000354623288033
-0.0277810849134
-0.000415395483483
-0.000259915660393
0.0350516418582
0.000317443718862
0.000755397610023
-0.0354491720432
0.0272889258946
-3.35586478026e-05
0.000297836457671
0.000123663795342
-0.0276768674998
-0.000478608990459
-0.000473420731502
0.0329172255715
0.000706301965916
0.000665443945307
-0.0333369417608
0.0317445540924
-0.00114811379443
-0.000865579180231
0.000851359360978
0.00144184791888
-0.0320240683976
-0.000286761948989
-0.000440067820108
0.035011820826
0.000778432964597
0.000328460660014
-0.0353918846815
0.0318148028276
-0.000872684750991
-0.00112946533642
0.00144063752032
0.000846801513321
-0.0321000917738
0.0265012115821
-0.00164105479828
-0.00163551712193
0.0016524901843
0.00161939154631
-0.0264965213925
0.0213152694413
-3.52530248221e-05
0.000294446803143
2.58182030795e-05
-0.0216002814227
-0.000644562880472
0.033678740315
-0.000240839951687
0.00114155759887
0.000167491252636
-0.0341023863344
0.0291438558973
-0.000602140258141
-0.00165916036512
0.00210156264072
0.000330261206653
-0.0293143791214
0.0219871102845
-0.00128472036581
-0.00236958092715
0.0022602205571
0.000681407977916
-0.0212744375265
0.0280208797084
-4.29830009592e-05
7.11181122502e-05
0.000178437155497
-0.0282274519752
-0.000453105847831
-0.000249197455427
0.0357994573789
0.000288856022818
0.00069879081463
-0.0360848009131
0.0280631586053
-3.45700691138e-05
0.000178478190848
4.21894069331e-05
-0.0282492561339
-0.000359566960606
-0.000361556871751
0.0337432799235
0.000599667095818
0.000592875848316
-0.0342146990353
0.0324749649438
-0.00109102589635
-0.000707211211792
0.000838415660194
0.00155382223097
-0.0330689657268
-0.000232573854659
-0.000352426712938
0.0358524587991
0.000613684771785
0.000218235034423
-0.0360993780377
0.0325598078677
-0.00071718373382
-0.00103731230271
0.00152373482511
0.00087092623759
-0.0331999728939
0.0265884960525
-0.00182571335868
-0.00189487444493
0.00198229506855
0.00195363510865
-0.026803838426
0.0218038283162
-1.81443686354e-05
0.00019735142344
1.18457476109e-05
-0.0219948811186
-0.000537167065662
0.0345384351661
-0.000218240310136
0.00101741452578
0.000133420071489
-0.0349338623876
0.0295883260624
-0.000739102022165
-0.00171417567518
0.00243751680054
0.000391852837368
-0.029964418003
0.0205400260161
-0.00163715568069
-0.00293851921446
0.00296079361421
0.000863963606459
-0.0197891083416
0.0284125486125
-2.24844477844e-05
4.59438562675e-05
0.000158139535019
-0.028594147556
-0.000192058302372
-0.000141602965248
0.0364533830509
0.000162162658717
0.000546485498786
-0.0368283699408
0.028423834266
-2.08133341089e-05
0.000165499235897
2.8659083964e-05
-0.0285971792517
-0.000373814148208
-0.000381851386691
0.0347258359679
0.000525855234644
0.000538046434237
-0.0350340721019
0.0336506462989
-0.00089876109497
-0.000694329509892
0.000680530929002
0.0013356044533
-0.0340736910764
-0.000115930258998
-0.00020034449863
0.0364629798983
0.000576364447865
0.000133864694211
-0.0368569342828
0.0337949386995
-0.000688822909993
-0.000920698522711
0.00129121143878
0.000658185756395
-0.0341348144619
0.0271057431416
-0.00185669551821
-0.0017927909735
0.00207274392193
0.00207440182067
-0.0276034023925
0.0221376158348
-9.72883563863e-07
0.000111526136315
-5.13180915732e-06
-0.0222430372784
-0.000424876543742
0.0353694206214
-0.000126263875183
0.000840743824535
7.58509821498e-05
-0.0357348750091
0.0304480246201
-0.00065373212882
-0.00141458211926
0.00220562101929
0.000467532586586
-0.0310528639779
0.0191094955649
-0.00185797060109
-0.00303408004823
0.0010849679784
0.000900272374418
0.000848401028958
0.000924051692449
0.000875307447763
-0.004225577613
-0.00516542995651
-0.00456274151083
-0.00489669635724
0.0287321924501
2.75930811945e-05
-3.14431698189e-05
-9.01253381755e-05
-0.0286382170233
9.06768767442e-05
8.08467731428e-05
0.0372186701484
-0.000107519598111
-0.000103989143484
-0.0371786850567
0.0287398981084
2.07906929726e-05
-9.52555273207e-05
-2.00914146152e-05
-0.0286453418595
7.97951292119e-05
0.000109797041023
0.0352494407028
-0.000107356363195
-9.05768618031e-05
-0.0352410996481
0.0343987630858
0.000129130783557
9.55530578316e-05
-8.29944864797e-05
-3.5869719834e-05
-0.0345045827208
8.46789733658e-05
9.91588288098e-05
0.0372366557541
-0.00010688162685
-6.96814134216e-05
-0.037243930516
0.0344500880592
0.000113015242231
0.000105581219058
-2.1034066225e-05
-0.000105714876101
-0.0345419355782
0.0283832226788
-0.000258380460376
-0.000308663156424
0.000145825515437
0.000125775167248
-0.0295031094894
0.000203916453181
0.000185271881885
0.000280744681347
0.000221411308399
0.000210917793295
0.000313067626539
0.0223085544736
3.59340816959e-05
-9.45945212888e-05
-4.40742889342e-05
-0.022205819745
0.000191070718877
0.0358873484392
2.14935072277e-05
-0.000273737817845
-0.000138079385251
-0.0356880954622
0.0315430084554
-2.19288471115e-05
0.000171616625803
0.000432598610524
-4.76010643927e-05
-0.0320776937802
-0.000337456344525
0.000111239745426
-0.00530337573728
-0.000127959103386
0.000485365486397
0.00517218595337
-0.0152990424073
-0.000218721865579
-0.000659721451179
-0.000122906381654
-0.000220439474159
-0.0149556965515
-0.000443038754422
-0.0122300422471
-0.000179992896079
-3.3671875023e-05
-0.026904879509
-0.0358236570307
-0.00017736821317
-0.000161243435983
-0.0120022411468
-6.65576643341e-05
-0.00016366487722
-0.0265940182391
-0.0359702495274
-7.97299275157e-05
-0.000343318031481
-0.0121872524926
-0.000349683217641
-0.0121852578161
-0.0288265454925
-0.000385187344425
-0.000389315386965
-0.000175030124404
-7.43206992588e-05
-0.0119379016689
-0.000176348933919
-7.37255402876e-05
-0.0119351833419
-0.000186393113344
-0.000186541688581
-0.0288049897489
-0.000557182954708
-0.0369888395961
-0.00021312016664
-0.0292522020099
-0.030754067783
1.5054596175e-05
-0.000302314178714
-0.000194996816064
-0.0368869058243
-5.69091252407e-05
-0.0296074969229
-0.0313437788122
-0.0152411308529
-0.00066912475956
-0.00025869140394
-0.000226427354536
-0.000110234255606
-0.0149044692427
-0.000218332329581
-0.029253083259
-0.00056428837021
-0.0369543705769
-0.0307356670826
-0.000301811772899
2.19334659448e-05
-5.25726657268e-05
-0.0296138360131
-0.000192126019224
-0.0368650765491
-0.0313260991942
8.17940090077e-05
-0.0267940223548
-0.000521806653404
-0.0122050521515
-0.0358339026995
-0.000185293808377
-0.000122270799653
-0.0264721412865
-0.000208394678113
-7.51936740131e-05
-0.0119214637994
-9.57917213605e-05
-0.0358943355933
-2.34102361934e-05
-0.0303640764267
-0.0005436132726
-0.0237064998012
7.69222862359e-05
-0.0306963638308
3.60584123233e-05
-0.000361399834169
-1.49216366093e-05
-2.80216851217e-05
-0.0307868675583
-0.000327860627839
-0.0234114564765
1.78956664734e-05
-0.0311328950078
2.02885758899e-05
-0.0147981582183
-9.14219604288e-05
-6.61163726952e-05
-6.31412385038e-05
5.1088967988e-05
-0.0147861059478
-0.000144151305998
-0.0118226873247
-3.54025160964e-05
-0.000122436528858
-0.0265248212089
-0.0360804875016
-5.35910739485e-05
-4.7742506946e-05
-0.0117485416092
-2.64032085597e-05
-0.000144507077738
-0.0266465437023
-0.0365096348287
-7.32780925646e-05
-6.89238952044e-05
-0.0118217879693
-6.94862784694e-05
-0.0118197183418
-0.0288382716111
-5.17386719538e-05
-5.33896395072e-05
-8.69130646459e-06
-2.41501042516e-05
-0.0117889465586
-9.50377445732e-06
-2.30389081063e-05
-0.0117871756592
6.27315786306e-05
6.50355110134e-05
-0.0289842337817
-4.25845752069e-05
-0.0368687193654
-4.64128507096e-06
-0.0298013156748
-0.0311736479956
-5.91844063613e-06
4.90738238189e-05
0.000253483816909
-0.0371822451685
0.000153620185063
-0.0301749237922
-0.0317784980442
-0.014772742589
-7.34048779217e-05
-5.83217758342e-05
3.77000576161e-05
-1.86781359992e-05
-0.0147917645106
-1.58707842175e-06
-0.0298113854564
-4.30165059104e-05
-0.0368658558713
-0.0311552002384
4.77069183381e-05
5.29618885127e-06
0.000157791433666
-0.0301935466912
0.000249406923143
-0.0372156555965
-0.0317834695545
-3.48302164992e-05
-0.0264355238576
-0.00016204219258
-0.01175422374
-0.0359186538636
-1.77918680312e-05
-4.52439564927e-06
-0.0266518606555
-6.95264556349e-05
9.19039178272e-06
-0.0116938876762
4.76202602335e-05
-0.0363512327334
1.28075001822e-05
-0.0309873235487
-0.000226197539282
-0.0231703548524
4.28226137923e-06
-0.0313556499466
9.94780088027e-06
-7.87412801835e-05
2.59950063867e-05
5.51975836387e-05
-0.0314686487193
-6.56102312365e-05
-0.0230790623175
3.12702779656e-07
-0.0317850812246
4.38575344856e-06
-0.0147849848564
-3.44172323295e-05
3.32961409426e-05
-1.8772105962e-06
-2.58497878709e-05
-0.014757257858
-3.32731715879e-05
-0.0116720880782
-4.31803594677e-05
-3.24477608803e-05
-0.0267013794692
-0.0367991997635
0.000234548923313
-1.07049210341e-05
-6.04393759613e-05
-0.0114976487472
-0.000113999955036
-1.51375968935e-05
-0.0267082962838
2.01772009043e-05
-0.0369599074412
0.000115428073568
-3.02973686992e-05
1.15584891699e-05
-0.0117659997729
1.09197496417e-05
-0.0117652667432
-0.0291350550585
8.619160118e-05
8.7107914433e-05
5.04528856024e-05
2.66092592494e-05
-0.0118430619178
4.32277631005e-05
2.58586468741e-05
-0.0118343531532
0.0001660782013
0.000165287326798
-0.0293727399379
0.000233620048935
-0.0374167909161
0.000223197058995
-0.0304594472751
-0.0321433405159
0.000305405483303
0.000516254096295
5.25740769503e-05
0.000149765786678
0.000254081087815
-0.0377150043623
7.085664739e-05
0.000248445752797
-0.0307100192733
0.000317970233426
-0.0323813218147
0.000253009176676
0.000487498962712
-0.0148110580098
7.40615911505e-06
1.18873401495e-05
-2.09017832833e-05
3.25472804598e-06
-0.0147934109546
0.000226775061112
-0.0304845558826
0.000226098933292
-0.037489323782
-0.0321660255875
0.000517074595307
0.000318355432109
0.000140076018174
5.46732276072e-05
0.000250009808288
-0.0307471154441
0.000317913098227
0.000236802430658
-0.037800612914
0.000108258145648
-0.0324409527211
0.000483688814457
0.000278050558071
4.99360645228e-05
-0.0267230922289
-4.98275303217e-05
-0.011612052438
-0.0366084082878
3.45321930775e-05
0.000222751895537
-2.97239186692e-05
-0.026717161827
2.70482447245e-05
-2.52707264034e-05
-0.000126010547955
-0.0114607711636
-5.7147306119e-05
-0.0367462803318
0.000140024705041
5.75855820028e-05
-0.0318079020968
-1.81011579743e-05
-0.0230522320835
-2.42950564566e-06
-0.0320710948678
0.000324612423874
8.8564336825e-07
-6.62020681607e-05
-4.24731097624e-05
1.94018062177e-05
-0.0322152935759
0.000264640298628
2.96594480605e-07
-0.0230902624525
-4.7393352461e-06
-0.0323963909772
0.000346696393361
-1.70188324399e-06
-0.0148870913087
7.99203577164e-05
4.99130930305e-05
8.4948995188e-05
-2.95064182361e-05
-0.0149425338857
-2.81257690451e-05
-0.0114090444022
-6.04785759367e-05
5.70629730441e-05
-0.0268608938032
-0.0371717012844
0.000240216196877
5.14850327172e-07
9.86431181706e-05
-0.0115308283394
2.31408190772e-05
7.4798679012e-05
-0.0269644873909
0.000113743903918
-0.0373185030421
0.00028540575672
3.48377981159e-05
0.000100886527784
-0.0120264966174
7.79435321335e-05
-0.0119902340194
-0.0297496644473
0.000279189933099
0.000276564636258
6.82547811468e-05
0.000103896197375
-0.0121986475959
7.68647326805e-05
8.806558237e-05
-0.0121551643344
0.000281810664085
0.00028374722917
-0.0301701028268
0.000394791729988
-0.0381448836417
0.000399895170907
-0.0310198348648
-0.0326603751088
0.000423540570641
0.000650199624373
0.000197888765245
0.000212031403145
0.000325594011114
-0.0385583926134
0.000256297307602
0.000412990029167
-0.0314116238442
0.000472641017548
-0.0330375239026
0.000445887449486
0.000669845384617
-0.0148680464176
1.23138526799e-05
6.23216102738e-05
3.69043244367e-05
3.81485870219e-05
-0.014943099329
0.000393378811925
-0.0310838288072
0.000358035791191
-0.0382308070834
-0.0327653752661
0.000643003621671
0.000432833526398
0.000215278448586
0.000159508786373
0.000405875776652
-0.0314514074283
0.000460728522191
0.000337014416923
-0.0385689613586
0.000197552969138
-0.0331064258999
0.000657870937463
0.000426069889926
3.34025061256e-05
-0.0268675345318
0.000149621034954
-0.0116165134871
-0.0370241587767
6.28650127029e-05
0.000398036973333
2.91426205761e-06
-0.0270750024705
0.000242702263632
0.000173205948495
5.07258440429e-05
-0.0118404452797
6.04078154667e-05
-0.0373883326297
0.000479886248079
5.44537548552e-05
-0.0325015416328
0.000280094272089
-0.0233381349941
-2.48409984538e-05
-0.0326697444432
0.000619508058856
-1.16065659162e-05
0.000344509338601
2.23095540732e-05
5.00074507877e-05
-0.0328241738977
0.000677541968198
0.000353466188123
-0.0236539010987
-1.53905294448e-05
-0.0329924090577
0.000735768557664
-9.63030427322e-06
-0.0150858967484
7.98613567606e-05
6.35015060081e-05
6.9260561261e-05
0.000131327690629
-0.0152864850003
0.000151387200193
-0.0117413726335
5.91570938386e-05
7.0585141047e-05
-0.0271893265676
-0.0375965483801
0.000411642165635
8.83755135834e-05
0.000167334823111
-0.0119848153974
7.61079407829e-05
6.80173469273e-05
-0.0275161874205
0.000328104067303
-0.038046234763
0.000532131974404
0.000152906578583
8.66474762905e-05
-0.0123984119023
0.000136392629047
-0.0123961228423
-0.0306002020176
0.000326485783557
0.000326653512634
0.000163469932383
0.000118674182049
-0.0126805560168
0.00017459048639
0.000117924641907
-0.0126886379706
0.000381425388334
0.000381333218193
-0.0310249002054
0.000313199907755
-0.0388965420755
0.000436237453605
-0.0317720361675
-0.0334282206344
0.00047053647911
0.000669597614025
0.000138045816553
0.000375754275697
0.000456253703093
-0.0393433738236
0.000259951552192
0.000446281768383
-0.0320070937176
0.000545955445686
-0.033716015135
0.000482172274362
0.000708157697723
-0.0151066212446
0.000104601345137
5.89205705003e-05
0.000163065102457
5.86874310425e-05
-0.0153283737781
0.000447308081794
-0.031751987094
0.000386643692327
-0.0389310036406
-0.0334022450444
0.000669773165644
0.000459997753034
0.000414080683286
0.000104932090006
0.000435969034377
-0.0319500653875
0.000557523160545
0.000518078441839
-0.0394090595369
0.000227974646964
-0.0336194229493
0.000728682004527
0.000442543376543
5.09947462111e-05
-0.027391912619
0.000172863796137
-0.0120848779509
-0.0377908254976
0.00010393853456
0.000522412875706
8.50919908777e-05
-0.0278340246999
0.00041570752115
0.000211084985565
9.56869289516e-05
-0.0123916498654
0.000161716982189
-0.0382687689011
0.000612403397667
6.19863740997e-05
-0.0331283517761
0.000346457248161
-0.0239681642012
-3.76144670185e-06
-0.0333331717352
0.000752773923323
-3.5676234844e-06
0.000437097105603
3.10703178016e-05
6.5458665582e-05
-0.0333681044426
0.000773108088735
0.00041820846981
-0.0243979746058
4.26722526385e-05
-0.0336423714011
0.000800025677964
-7.15887674976e-06
-0.015552546174
8.70877302515e-05
0.000178973443382
9.92936460129e-05
0.00021928914564
-0.0158711289656
0.00018982635218
-0.0122630920929
8.84503433413e-05
8.78054223808e-05
-0.0279443484231
-0.0385615075069
0.000614570177619
0.000178334340881
0.000232086367167
-0.0126027942156
0.000107615755499
0.000105286717254
-0.0284386833695
0.000488341875172
-0.0391053775763
0.000673952115065
0.000207291038745
0.000142752066318
-0.0129171019196
0.000127516003999
-0.0129193177572
-0.0314243529172
0.000339437924983
0.000330282857199
7.24185565284e-05
3.22370007419e-05
-0.0130217574768
6.52344554581e-05
6.36904290609e-05
-0.0130482426417
0.00022841083726
0.000243116654372
-0.0317582273969
0.000448497308005
-0.0397634815121
0.000443900505114
-0.032279803928
-0.0339656885043
0.000486036347622
0.000656034834808
0.000110580113094
0.000319770468056
0.00059688240417
-0.040350044446
0.000319549788452
0.000434860131596
-0.0326383289513
0.000471846196956
-0.0342295943964
0.000546662055655
0.000748986372228
-0.0156564959503
0.000207038297275
0.000121083874837
0.000219365353797
0.000122297167764
-0.0159981584718
0.000425922832611
-0.0322587767582
0.000436403505117
-0.0397985927006
-0.0339468577815
0.000730430045921
0.000459331123998
0.000220597188903
0.000135898431049
0.00040134641134
-0.0326791158782
0.000482706551991
0.000450902891001
-0.0402266981755
0.000332466368803
-0.034347556416
0.000741136300145
0.000511811636706
9.89230570537e-05
-0.0282943817227
0.000258241684906
-0.0127671090489
-0.0387557192938
0.000194598700612
0.000649516434079
0.000131600517252
-0.0288470575448
0.00054337247261
0.000210300690713
0.000107090044078
-0.0130844997837
0.000186072305868
-0.0392476672035
0.000647776811845
6.14879788408e-05
-0.0335408981408
0.00051196953253
-0.0248376607867
-4.11243234316e-05
-0.0339116633559
0.000859291328622
-1.65418624113e-05
0.000439677054787
3.92905299538e-05
0.000110005846454
-0.0337673147179
0.000742160091273
0.000543546184727
-0.0253515030899
9.58664841585e-06
-0.0341492772787
0.000872334663493
1.88312905273e-05
-0.0160904638655
7.30725578899e-05
0.000146262341997
0.000105051217235
0.000219973096361
-0.0164154881791
0.000257348406356
-0.0129896388437
0.000129496221764
0.000116710402412
-0.0288977166975
-0.0396279758087
0.00066750296395
0.000229154077224
0.000221248500909
-0.0133168703195
0.000105982974898
0.000137038775303
-0.0294361741546
0.000506469899085
-0.0400603663841
0.000599311119595
0.000191366732
9.84653450908e-05
-0.0131766415025
6.09042594045e-05
-0.0131427055489
-0.0320403360736
0.000245852484976
0.000195625796201
6.38504632561e-05
4.60823914021e-05
-0.0132865743572
9.06872486568e-05
5.68055916245e-05
-0.0132901983892
0.000143397633193
0.000149330400538
-0.0321785263954
0.000561510052842
-0.0409084331772
0.000435204029755
-0.0329516661985
-0.0345700503352
0.000512954237297
0.000824215784131
6.41023764527e-05
0.000221774809894
0.000401329357639
-0.0412757920553
0.000250104993289
0.000303507499017
-0.033254030989
0.000364029734586
-0.0350404265349
0.000418453837809
0.000756759218503
-0.0162579063412
0.000173670086745
8.60777826187e-05
0.00011210629856
4.45501679455e-05
-0.0164145628077
0.000407052477153
-0.033066126833
0.000539595175896
-0.0407557214183
-0.0347392490504
0.000791936692978
0.000546403594466
0.000330851968177
0.000112244728947
0.00038314262862
-0.0333694908321
0.000400403739155
0.000537767321761
-0.0413012840673
0.000232146354722
-0.0351108214348
0.000796821579753
0.000495660755005
0.000112548597648
-0.02931359618
7.04153465081e-05
-0.013190168155
-0.0397241001148
0.000119657369773
0.000539739485613
4.64510497436e-05
-0.0295926229357
0.000277125873934
9.31851465656e-05
2.89964757528e-05
-0.0133123497773
0.000100120325881
-0.0400972616951
0.000412677450766
9.83770221416e-05
-0.0340961504476
0.000469114202433
-0.0258058944786
1.10953894208e-05
-0.0343690440875
0.000785312650705
1.94538258302e-06
0.000220014858355
1.25285109715e-05
5.25543795991e-05
-0.0344171169329
0.000588547289955
0.0002602521452
-0.0260518641392
-1.753973627e-06
-0.0347209194854
0.000676032267037
-1.13503443313e-05
-0.0167295545232
8.47686642677e-05
0.000229297679854
2.17388769586e-05
7.41560504884e-05
-0.0168254494507
7.00744461587e-05
-0.0134093486328
2.24038671911e-05
8.23339631942e-05
-0.0298868453014
-0.0404585062039
0.000453793118107
9.67551109892e-05
7.97482261983e-05
-0.0134928916597
3.79480068026e-06
2.08516137825e-05
-0.0300733014291
0.0001873433909
-0.040720944591
0.000317797459452
4.52407676441e-05
4.70338045389e-05
-0.0133765911627
5.20310479547e-05
-0.0133767995063
-0.0323602389603
0.000149668861901
0.00013110855548
3.70177392087e-05
2.75883037103e-05
-0.0134411972056
4.07875770759e-05
2.36687916308e-05
-0.013441255875
0.000140714604564
0.00013627763221
-0.0325594258808
0.00041476310433
-0.041639336823
0.000316836974672
-0.0336023289069
-0.0354237265908
0.00040150726856
0.000713392866355
6.4771438569e-05
0.000147913502516
0.000301551971373
-0.0419411314304
0.000139170125127
0.000305700039181
-0.0339645785728
0.000345177733765
-0.0358186251257
0.000386774563842
0.000615375981584
-0.0167312361464
0.00023719447805
7.94788606914e-05
8.17140786042e-05
1.41138387617e-05
-0.0168270640638
0.000296443102221
-0.0337179040597
0.000394357175661
-0.0416488312127
-0.0355268720579
0.000687608245593
0.000419242655441
0.000153020781785
4.52261418876e-05
0.000280618666067
-0.0340476722762
0.000338447964386
0.00031064881674
-0.0419359416207
0.000103401811764
-0.0358746227565
0.000609834268153
0.000329183913269
2.86095577869e-05
-0.0298941803457
8.83100393633e-05
-0.0134188041853
-0.0404257480951
8.41068723619e-05
0.000361299124754
3.90742498235e-06
-0.0300865729574
0.000202599025412
7.14861110223e-05
2.51908554057e-06
-0.0134928093819
3.13864585677e-05
-0.0407108082362
0.000329067218557
7.14261152707e-05
-0.034744251818
0.000237987520676
-0.0262788001158
7.94203528132e-07
-0.0350472483908
0.000627240826032
8.50171537346e-06
0.000143963861104
1.28994056261e-06
3.87700727383e-05
-0.0350770600594
0.000469388488311
0.000173434060674
-0.0264509434699
-7.66085401405e-10
-0.0353771259219
0.000539407451008
2.67421350357e-06
-0.0169256027589
2.21607782959e-05
7.79925299408e-05
-8.99967403807e-07
8.10524778959e-05
-0.0170057552694
6.54062471295e-05
-0.0135616253696
3.32746281215e-06
1.06146363645e-05
-0.0302538135896
-0.0410090600412
0.000330681244818
3.34550889357e-05
5.46160793705e-05
-0.0136180777393
1.83629029318e-06
-5.58815917902e-06
-0.0304285101025
0.000179384704704
-0.0413136732692
0.000287610457891
6.60306902169e-05
4.3208764736e-05
-0.0135068904181
4.51885182056e-05
-0.0135072577273
-0.0327648271314
0.000148482729616
0.00014531580395
3.70957068363e-05
1.94402997541e-05
-0.0135634264247
3.06106763197e-05
2.90555649765e-05
-0.0135669239686
0.000135810360089
0.000160000553831
-0.0329929316621
0.000342244631088
-0.0423010426406
0.000248843436584
-0.0342806138929
-0.0362272585196
0.000362778354317
0.000636943107277
2.78543848364e-05