/*--------------------------------*- C++ -*----------------------------------*\
| =========                 |                                                 |
| \\      /  F ield         | OpenFOAM: The Open Source CFD Toolbox           |
|  \\    /   O peration     | Version:  2.3.0                                 |
|   \\  /    A nd           | Web:      www.OpenFOAM.org                      |
|    \\/     M anipulation  |                                                 |
\*---------------------------------------------------------------------------*/
FoamFile
{
    version     2.0;
    format      ascii;
    class       volScalarField;
    location    "30/fluid";
    object      T;
}
// * * * * * * * * * * * * * * * * * * * * * * * * * * * * * * * * * * * * * //

dimensions      [0 0 0 1 0 0 0];

internalField   nonuniform List<scalar> 
25373
(
315.279789584
315.915035361
315.28009113
316.387068335
317.715308644
315.914888813
317.7159204
319.660225476
315.346868123
316.43289627
318.632856475
320.900366564
314.815581238
315.572214042
314.815675369
316.171358336
317.855854639
315.570325467
317.855918602
320.320689801
314.884611084
316.234865098
319.028878602
321.88486226
314.167886156
314.588445855
314.168130124
315.085259037
316.755765227
314.588051819
316.755777584
319.595590154
314.237480311
315.287603131
318.270964721
321.758507009
313.377690986
313.971976238
313.377833086
314.636618012
316.792411137
313.971211867
316.79190109
320.427744809
313.465788284
314.876393085
318.712565109
323.178513157
312.360074608
313.11843096
312.360314068
313.985334524
316.76209508
313.119746464
316.761511869
321.459918918
312.472570893
314.291411946
319.222994861
325.004634983
311.08694731
312.046428631
311.088865612
313.157028769
316.713041846
312.052674599
316.715129589
322.868314515
311.220744881
313.549828363
319.926936386
327.545184297
309.521336645
310.715074845
309.527651204
312.077749262
316.594760372
310.725436943
316.600374844
324.757060005
309.675984041
312.583551466
320.818441812
331.156877377
307.656798045
309.060290914
307.658400887
310.638291787
316.265440573
309.064536235
316.276048272
327.224172186
307.830723658
311.267335794
321.801244652
336.496112035
305.566169899
307.046892087
305.566654933
308.748074213
315.319571137
307.048010984
315.324023094
330.055773622
305.74433404
309.458736293
322.359933306
344.512797823
303.468815123
304.800093323
303.46953068
306.380919807
313.080156344
304.80119819
313.085118316
331.096864317
303.620279148
307.059753787
321.11201518
351.815901907
315.309294488
315.112374997
315.334965892
315.362393346
315.394596253
315.135693069
315.165826037
315.199904983
315.255236698
315.255387373
315.304116598
315.05370671
315.053787802
315.105632805
315.362070988
315.514782903
315.741560652
315.079609719
315.169924479
315.330838042
315.585379711
315.310151465
315.112861386
315.514799964
315.362481047
315.741447981
315.079762304
315.330748187
315.16998051
315.585007067
315.363353647
315.336346353
315.395636177
315.166467783
315.136641498
315.200432387
315.5398194
315.345833881
315.588198772
315.147540607
315.352801337
315.146949011
315.406483675
314.845517754
314.529991295
314.871672646
314.907010315
314.944196651
314.558962382
314.577434468
314.632903372
314.78748396
314.787544831
314.844894398
314.477910556
314.477989856
314.54058525
314.91528141
315.099905969
315.390692678
314.507460364
314.613751857
314.817546194
315.166812336
314.845750215
314.530266629
315.099799776
314.915170246
315.390148398
314.507587826
314.817412684
314.613682563
315.166279058
314.90710716
314.871971802
314.943887797
314.577328067
314.558969292
314.632223711
315.116403751
314.885357828
315.178656206
314.574160622
314.816559534
314.578699878
314.889997619
314.171158496
313.806474737
314.221111465
314.203369399
314.298110193
313.861302736
313.846325943
313.950194332
314.135503051
314.135630892
314.201832265
313.762216273
313.762384888
313.838209077
314.277894137
314.506047579
314.970910121
313.800013264
313.928887302
314.189757468
314.712218685
314.17164077
313.807117118
314.506010975
314.278126321
314.970644363
313.800304489
314.18964766
313.92919442
314.71180969
314.203682484
314.221200105
314.297902476
313.846896838
313.861265487
313.950131009
314.489496102
314.247336362
314.585703009
313.87846936
314.168369387
313.889052647
314.276521833
313.386183064
312.909335463
313.449125179
313.431930907
313.548366231
312.981252815
312.961289373
313.093112812
313.334205125
313.334394689
313.420664926
312.8491868
312.849316971
312.947751577
313.524267655
313.8203358
314.411433971
312.898992943
313.065406767
313.402852268
314.073800838
313.38681254
312.909351454
313.819819708
313.524398489
314.410500293
312.89891314
313.40178524
313.065329096
314.072085215
313.431915935
313.44617943
313.547499367
312.960170807
312.975944649
313.092091097
313.793316553
313.478277969
313.915452764
312.998556822
313.372748547
313.012722439
313.510693997
312.372406826
311.772335263
312.453812798
312.431168667
312.580377669
311.86281791
311.838793815
312.006799848
312.303171936
312.303322471
312.415371222
311.691436812
311.692010027
311.819492328
312.54834194
312.931784697
313.690719231
311.756997516
311.969708153
312.4044382
313.2592851
312.372311086
311.771952995
312.931218151
312.548630106
313.689430909
311.758332608
312.405446576
311.971137836
313.259981218
312.429208652
312.446777635
312.579282065
311.835223109
311.852658376
312.004272129
312.899666653
312.488464243
313.055378489
311.881552738
312.368404448
311.899466585
312.54339974
311.103582599
310.359370996
311.201845059
311.17794179
311.366443666
310.464964699
310.442627705
310.653150315
311.010482501
311.011318122
311.155999146
310.257531363
310.259425494
310.421245555
311.326231401
311.816799876
312.775422121
310.3430073
310.609465683
311.157555103
312.227039219
311.101959392
310.356951885
311.818574988
311.328392834
312.777353774
310.347364071
311.160226931
310.61353663
312.228946309
311.172809895
311.188325876
311.362980237
310.435313157
310.449068211
310.649161457
311.775684767
311.24177846
311.971392044
310.486592701
311.115263485
310.510046629
311.333661856
309.538613138
308.638302328
309.648522503
309.630465195
309.863039391
308.752367546
308.737634059
308.993171297
309.427714579
309.432580145
309.610628955
308.523685716
308.526806078
308.723502346
309.817678652
310.422012513
311.61265591
308.625287153
308.947676774
309.605663044
310.913094098
309.534883315
308.637010527
310.422940052
309.820976848
311.610061328
308.628621478
309.605027617
308.950021709
310.911572901
309.621002759
309.634314263
309.858013409
308.731780301
308.744502487
308.989814447
310.376774484
309.699501298
310.620678452
308.789562856
309.554246371
308.813544131
309.822772154
307.662539873
306.63232044
307.785638413
307.769615053
308.045414907
306.759896714
306.744002056
307.031224967
307.55133793
307.551835359
307.762391659
306.522532096
306.522787402
306.738905846
307.998455734
308.698339302
310.10669335
306.629673577
306.98446592
307.709727413
309.194229055
307.663081206
306.632867084
308.700513208
308.000782475
310.11194298
306.63051468
307.710569533
306.985424693
309.195931
307.768439656
307.783441952
308.044825322
306.744333134
306.760553741
307.031518876
308.647350096
307.855911253
308.934720713
306.809145142
307.660050799
306.835490416
307.962067011
305.568467849
304.501355214
305.69522897
305.679413247
305.967774375
304.621629528
304.60778716
304.886357872
305.459638166
305.459806206
305.674367308
304.397027604
304.39712936
304.602485643
305.921301663
306.651684049
308.170986675
304.499193985
304.842824918
305.549897267
307.051890069
305.569073029
304.501938098
306.651708261
305.92179971
308.17052453
304.499562209
305.550064252
304.843204223
307.051631115
305.680257345
305.696044525
305.96827572
304.608727342
304.622278381
304.886620968
306.603913319
305.77098934
306.911531278
304.66785598
305.50379053
304.693430283
305.803526838
303.471170676
303.579522972
303.568191652
303.823712801
303.376453616
303.37668152
303.562078285
303.783546872
304.43130421
305.839532027
303.471736302
304.432388278
303.784250595
305.840547716
303.56872192
303.579729254
303.823158128
304.389828846
303.643701134
304.665140805
314.974618984
315.574415571
316.240546551
314.323962165
314.742997957
315.379353916
316.06884129
315.931832827
315.931548161
317.174852715
314.906077357
315.816815208
315.816564078
317.123177104
317.648558602
318.282079787
319.415606258
316.804961897
317.761818424
318.434163657
319.63170218
315.57422695
314.972897607
316.239286197
314.323662061
315.378480747
314.740589377
316.064931145
318.282417495
317.64787762
319.415869304
316.804704228
318.434436041
317.759260388
319.63136149
320.907667763
320.907699574
322.361287333
320.022508259
321.42328132
321.423242666
322.974053943
316.724949135
315.497171028
317.041149329
315.124149679
316.638872468
315.351815501
316.978798045
320.173683532
318.668192781
320.636888612
318.511564204
320.5400593
318.938905637
321.040129439
323.288744942
322.248671843
323.841517885
322.451696655
324.09022505
323.002317172
324.679242612
314.443043347
315.165555037
315.937654709
313.571624838
314.102405463
314.927512734
315.797711086
315.665347379
315.664996131
317.130238009
314.330953569
315.499417561
315.498797244
317.162595059
317.863557613
318.622925594
319.969645558
316.777896775
317.987010442
318.855932078
320.378466824
315.164048503
314.440553626
315.933050262
313.571111042
314.92623608
314.104532902
315.797392999
318.623200808
317.860153597
319.968944055
316.77741519
318.856170579
317.984533934
320.3770062
322.005086218
322.005163253
323.752241111
320.900947373
322.684412606
322.684597135
324.661925133
316.582059562
315.132822124
316.960708731
314.600909859
316.533264166
314.891018854
316.960151729
321.002158506
319.192750403
321.566587585
318.946327009
321.543434891
319.487857505
322.180485596
325.025204602
323.803030678
325.689142472
324.015198012
326.109239064
324.724509719
326.864535913
313.717504734
314.655574097
315.639394014
312.610999804
313.286571485
314.347010596
315.458933507
315.311346118
315.310553574
317.202882072
313.596335388
315.097324478
315.096765215
317.249207769
318.132832553
319.129716081
320.861488426
316.742080272
318.297175065
319.445728178
321.42074462
314.655611859
313.725832698
315.644975425
312.614576455
314.349838585
313.300223454
315.472852742
319.129608255
318.132279396
320.858615849
316.742388957
319.445464451
318.303756834
321.420041494
323.49071102
323.490310539
325.740843338
322.11088371
324.435174332
324.434558955
327.0131007
316.482976568
314.620767612
316.967423454
313.942326049
316.428015094
314.315526857
316.980462613
322.182609842
319.83638314
322.905458339
319.549551851
322.932441382
320.250850284
323.760722322
327.387445497
325.81036458
328.246675711
326.169693337
328.9035664
327.096320331
329.893558764
312.807156057
313.998811633
315.25733797
311.416513094
312.269790814
313.600557391
315.025292829
314.8497421
314.849659807
317.295290935
312.654290326
314.554444842
314.556649174
317.329763572
318.483426969
319.804749562
322.067951768
316.664764298
318.688467882
320.201457886
322.811262398
314.004401842
312.82512587
315.278240804
311.4252351
313.607413843
312.290524024
315.049483014
319.804487921
318.497908755
322.069885708
316.669783462
320.203636528
318.709828189
322.819318558
325.546886285
325.545323455
328.52588523
323.744248196
326.857505019
326.855818374
330.337049451
316.365705668
313.97039065
316.995123498
313.103182375
316.283301903
313.575711441
316.999333407
323.807393764
320.732180206
324.761924994
320.353127748
324.833337887
321.281237108
325.941276911
330.712337467
328.617053615
331.862839667
329.184020578
332.894175496
330.436548559
334.246270291
311.665088526
313.14674726
314.749588853
309.930248092
310.976885019
312.609697777
314.403348722
314.204437471
314.207319052
317.342053693
311.41351429
313.782006997
313.784573432
317.320189979
318.911683831
320.639709756
323.669682045
316.479966354
319.131509905
321.113640391
324.645803822
313.152688915
311.685674654
314.772391778
309.940519689
312.617301077
310.992944311
314.421494759
320.642374423
318.931131509
323.676697927
316.486668224
321.115593044
319.142876246
324.649668517
328.413716263
328.410159378
332.531556476
325.922363211
330.265401707
330.261040219
335.225272315
316.160635385
313.11344551
316.976332328
311.977339483
315.978110947
312.564262136
316.899756561
326.032037779
321.89379604
327.333012627
321.311266661
327.424012315
322.562870124
328.976142868
335.567835661
332.638689045
337.179051558
333.555784216
338.91045772
335.349271385
340.879747456
310.190759656
311.965239414
313.952709585
308.09854495
309.289319276
311.187685137
313.349801926
313.241485492
313.247297281
317.203239024
309.751184224
312.558701914
312.561560349
316.935179649
319.278460517
321.570763829
325.715001206
315.902765739
319.316423628
321.928909291
326.838062573
311.972898771
310.196705572
313.960044632
308.098936263
311.189876818
309.288978131
313.349779504
321.57980494
319.282684886
325.719123851
315.910267997
321.939807716
319.317823855
326.842077099
332.456460232
332.460733935
338.567380086
328.636914793
335.04288714
335.053675574
342.783171551
315.700489929
311.909270883
316.737846421
310.431620304
315.267833452
311.1226927
316.42494994
329.023892403
323.263794418
330.902652369
322.200402453
330.806388703
323.919214587
333.098171734
343.17984118
338.727915359
345.67819232
340.111049987
348.7607779
342.978546313
352.140581722
308.269157307
310.248388765
312.547261858
305.940978393
307.151721751
309.146192636
311.507913214
311.704566645
311.704501451
316.456338565
307.626345566
310.637150583
310.63640446
315.648407396
319.119490066
322.081682036
327.877626964
314.427242957
318.52559889
321.836251461
328.422274723
310.249867754
308.270650564
312.548751481
305.942756277
309.147646742
307.153453509
311.51046468
322.090365485
319.119056217
327.882303754
314.427100135
321.831369854
318.523914527
328.412709483
337.987747332
338.005376989
348.155950232
331.000597063
341.047581346
341.055855691
364.150368873
314.614769228
310.180463997
315.865988534
308.342026507
313.67078866
309.066885528
314.985272487
332.656168691
324.27736491
335.46438295
322.153301874
334.248558986
324.304321683
337.734953352
355.035692124
348.318883659
362.012666391
344.813288438
372.018693339
352.261475135
388.561439919
305.938453583
307.846631762
310.150654711
309.292452488
309.293595755
314.325534949
317.292402038
320.833204844
328.079548017
307.848930238
305.938026542
310.154150751
320.837531926
317.300247993
328.086056958
336.329843846
336.359259591
362.148903968
312.28214464
307.745157661
313.583453237
335.02478521
323.309212405
333.997360728
354.757789696
365.148220533
375.290091412
372.995286568
373.670673358
371.272078119
366.667340205
386.119402496
366.886687917
381.08337046
370.156781329
366.411298807
364.922602291
353.183127589
366.949768388
356.659802901
364.974463764
354.892625511
376.208231647
375.46989061
372.276953926
384.612889836
302.522445985
302.613462293
302.603717412
302.818533728
302.442398033
302.442610237
302.594402346
302.519130792
302.782577464
303.319197577
304.519740038
302.522771879
302.519730206
303.319789529
302.782935171
304.520175982
302.604005154
302.61348656
302.817929242
302.647108106
303.295330573
302.667460529
303.529733944
303.638616827
304.615549539
306.271858623
308.338244244
304.980694554
307.551001645
307.551222816
312.192141029
311.02448593
315.024100675
318.537940192
303.639481751
306.274513997
304.614224699
308.340611863
311.029111024
318.54447461
315.032041689
305.589135143
310.276048167
306.198253526
353.726802511
370.071766841
363.817145213
363.889252342
368.673846077
347.204242551
359.377916977
351.990869644
386.751210641
383.486827061
367.453033635
365.842655656
357.693125077
355.70115392
379.181193957
386.207543573
358.269541048
347.210586842
364.406238528
346.253623776
356.102494713
350.368364707
361.177266112
362.115830651
365.268048059
362.321079219
357.807451487
370.167768626
367.51924471
378.574378887
384.723030952
388.422396594
383.934081505
384.446048899
383.647465107
378.942117661
362.134285089
353.088636373
368.915517648
359.398770032
359.380349444
351.516358223
387.856193868
387.718071749
377.831492675
388.127139711
381.824206481
376.527359302
383.031548373
383.031355326
374.414143867
379.173987203
381.183565086
376.91299647
372.465352
384.552965799
384.198913479
383.495342681
388.347771793
380.061442829
387.019725945
385.743461347
383.44169525
387.709971082
378.147173179
387.237840498
383.517111932
381.97948306
387.629588049
379.45177288
386.477833512
381.50086601
386.135908658
387.372875924
388.246660263
386.650693992
382.710875611
374.96670346
380.356618589
382.362498013
379.717870719
386.85642053
385.548677335
375.42651942
379.574896122
373.928020125
381.453645165
383.308668454
378.29870921
384.336361338
383.356351551
382.770223447
377.710667553
370.621960061
384.545029539
378.272892494
384.492651219
376.702999571
380.597037106
385.188328893
381.505598896
377.920433352
386.554525643
384.309844803
375.724547118
380.697693212
371.820235699
381.799447192
368.159567394
377.029942617
372.826161286
367.75158425
377.030809613
373.896846581
368.618106478
375.94021325
366.547865647
378.831344763
369.558078157
368.951070585
378.533573237
369.941225782
381.02131591
380.371924119
370.615406347
384.941825009
383.067318417
384.222749226
386.220853257
385.944313418
325.995125508
326.002891528
329.250046191
335.597847349
335.620671768
311.521356696
318.616492468
321.080793208
333.182263295
385.707452726
381.918912848
378.943002087
384.675355119
370.524158012
384.307720245
378.201764708
382.757391293
368.284384534
377.294607877
384.079824887
368.865646801
376.79979084
366.686727273
379.630422331
370.224907028
381.376495087
380.942011458
370.914041344
379.761808707
372.03427865
375.840981488
374.696711506
346.80746361
359.466337985
356.205936082
356.19466798
352.619277251
352.613259946
349.390856016
359.837483202
360.758779921
356.167764148
368.067337422
355.00924601
366.587365496
361.18120591
356.711272868
349.191801048
350.879987076
362.354442934
348.011666379
360.723389722
358.113221419
377.759636452
373.118025568
367.710317327
376.413938123
370.186635152
373.479458185
380.774943445
373.145956723
378.950593818
370.599120348
376.71543262
365.003274184
368.807841349
371.087335171
366.582168857
374.407362472
372.564065003
365.045371378
370.692979189
363.635145109
372.497405784
368.224354517
367.663361008
375.62440139
366.053814693
374.28598938
373.683378105
366.580592437
371.978985849
363.991275394
360.78149467
363.480434198
367.981169868
371.232500978
361.049099298
379.509767003
374.577237423
375.771006887
372.249073277
368.830427266
375.687279924
372.231399358
367.112185251
344.354028595
341.741739124
351.965741281
344.384180671
341.753735754
351.984304356
343.264517988
334.314196406
344.697450039
360.922218284
372.331196506
368.94516702
363.977471405
357.345279573
350.049987991
358.502921275
359.801355444
352.974133856
353.760125419
363.763123911
354.160528151
342.865730052
353.364729475
348.41920243
350.308912195
345.88030261
357.635760729
344.480502919
342.085604156
351.552106443
341.496050918
336.182042227
350.392177955
343.744081113
344.506233929
342.105278025
351.563643021
341.505005238
336.202003292
350.393775924
343.754972537
343.497764335
335.056583104
344.850697356
344.370361816
342.963979662
334.982911106
334.04804776
328.335074327
331.157079461
336.992260674
340.788494774
392.457459
392.196913734
395.186494627
398.329454074
390.802110073
394.301685983
398.006989565
391.046317562
394.492613297
398.102947648
390.705560016
394.213855996
397.959534425
390.993365998
394.410575638
398.039139208
391.994227377
395.028971053
391.046055619
394.484970268
398.092505162
390.502019466
394.172702352
397.988299929
390.24809411
393.97490399
397.890041963
390.754270394
394.34873954
398.073753631
390.497752207
394.110412069
390.520550704
394.137299219
397.956643551
390.8400946
394.381787888
398.074414156
390.29968082
394.027675141
397.928467579
392.429233048
391.990815264
395.066040873
398.292658796
391.778582485
394.946057132
398.25987023
392.18394795
395.183613197
398.331420174
391.998354449
395.065665959
398.289477803
391.779499113
394.935275944
398.247800327
390.781158495
394.264240814
397.977092286
391.19260265
394.535963458
398.084026337
391.940419216
391.810423452
394.929281221
398.226961477
391.683405452
391.589615039
394.817559951
398.209810966
391.013698933
394.454463832
390.899862774
394.360296905
398.030112902
391.139687236
391.411102946
390.975896516
394.398799644
398.030275938
391.365104117
394.666968832
398.148062818
391.222655721
394.572157629
398.103905152
390.891836282
394.370537412
398.040880774
391.053709006
394.498936096
398.093925817
391.517217493
394.816852279
398.234939961
391.166397286
394.532684714
398.080284103
391.400359196
394.712083548
398.178418885
391.912165874
394.976062526
398.239032625
391.560383301
394.774408885
398.161047568
391.637326682
394.806041751
398.177487827
392.162905389
395.172657253
398.331546655
391.918084267
395.062195266
398.319219334
391.528951303
394.790261788
398.197030779
391.406710747
394.654259366
398.118576341
391.484820742
394.739552205
398.170987157
391.019418598
394.473545858
398.09103184
391.112352687
394.475584551
398.055130976
391.20385755
394.5615099
398.105023132
390.673796057
394.240529922
398.001179234
390.171602602
393.897428763
397.857868218
390.459326069
394.163135432
398.007660359
389.989288118
393.763866786
397.793971721
390.728544301
394.327328573
398.06401902
390.214529538
393.962251122
397.888674523
390.569492333
394.206317908
397.998226893
390.087055952
393.831456658
397.828128813
390.076291078
393.833017724
397.830122236
390.270492648
394.01251844
397.93459315
390.006261716
393.818383271
397.846120661
389.873031379
393.698910536
397.776729796
390.70819572
394.268386686
398.015877892
390.418707101
394.172968792
398.027923405
390.350958646
394.064220027
397.95304343
390.033461508
393.819811024
397.824728962
389.872910744
393.725289174
397.794305956
390.765310874
394.339424411
398.05848237
390.275597941
393.986623765
397.900487056
389.830217562
393.751935527
397.839840783
390.060979296
393.953740404
397.955340404
389.460327476
393.459442784
397.690948143
389.793795905
393.69210912
397.801397309
390.087717216
393.942487242
397.933580156
389.801424225
393.663286992
397.774108165
389.437799398
393.406254788
397.654558877
389.856553281
389.855653782
393.739812532
397.827601655
389.764474935
393.672293722
397.794791087
389.853725612
393.748285692
397.835898692
389.751005714
393.68325152
397.812237491
389.704955714
393.65038269
397.798783717
335.432183255
374.366410522
334.034631204
343.075894801
340.363223847
351.076588739
334.044756271
343.108306234
340.366442895
351.090871685
331.571489597
341.882336311
343.417922028
332.72209879
352.858467054
346.047898092
355.096136543
363.536351732
363.58794156
351.073879879
359.152220228
357.271822446
339.120766214
326.752257651
329.605447235
383.888657188
383.65925171
381.807585156
384.412948544
372.128204249
367.959694589
376.746661461
381.213443596
377.751790767
377.778168421
370.049980624
376.970509393
366.279266144
379.586175211
368.555542893
370.658745811
369.96435846
363.502501563
368.745643711
360.387242827
389.501514407
389.506456725
393.536981264
389.548185883
393.574996505
389.540241324
393.568232436
389.704819136
393.697306453
389.320656612
315.345604089
316.432869385
318.632383529
320.899287859
322.307132507
314.884348748
316.23752856
319.029591064
321.88342781
323.643540586
314.237565251
315.290247704
318.274281563
321.758378491
324.237335704
313.469038948
314.878251188
318.721481008
323.178892327
326.35725442
312.479879209
314.275492092
319.221834075
325.00737667
329.113259225
311.233248161
313.528625393
319.90194729
327.551088726
333.002287724
309.685641407
312.570212854
320.799179303
331.164682006
338.769649852
307.831284876
311.268767032
321.804629134
336.490011529
348.202066928
305.743611608
309.456662832
322.363733825
344.515145958
359.342608342
303.620272541
307.06151426
321.104816172
358.259776524
384.027469208
315.344750785
315.538839018
315.587325752
315.146668941
315.146122584
315.35259772
315.406141004
314.884971887
315.117211768
315.17915343
314.574165459
314.578547433
314.817755022
314.890992867
314.247411861
314.49042091
314.587057868
313.878738284
313.889228977
314.16917667
314.277539474
313.481364006
313.793546914
313.915870443
313.00410086
313.018168446
313.369031308
313.507106162
312.495883253
312.894217139
313.051746938
311.891701742
311.909432835
312.362657584
312.540528826
311.252299936
311.767926045
311.966362136
310.498970117
310.518992534
311.104180164
311.324257556
309.707732009
310.367402331
310.611491539
308.793387189
308.817938011
309.552255716
309.82142951
307.857503245
308.649333598
308.940045204
306.808277448
306.835338889
307.659295506
307.963601771
305.770782045
306.603491321
306.912687321
304.667422647
304.693166904
305.504353199
305.804728524
303.64354915
304.391204336
304.665972488
315.501624434
316.728690852
317.047530215
315.12802833
315.356709029
316.648033295
316.990672714
318.673740282
320.174184807
320.638354155
318.519681988
318.951095305
320.542523936
321.044547227
322.249167221
323.287484044
323.84120595
322.451820132
323.003707321
324.088604822
324.67918905
324.844514898
324.844689579
325.439324557
325.258068565
325.876032548
325.876016561
326.505706387
315.134008247
316.590065889
316.96950526
314.592268941
314.880748011
316.528893899
316.952890044
319.20573891
321.005986041
321.573329231
318.950243624
319.492030005
321.548714416
322.188572422
323.805249005
325.023276509
325.68926768
324.016249998
324.727794473
326.10744393
326.864957578
327.049317257
327.049191799
327.755207894
327.624632884
328.410172051
328.410042226
329.209870967
314.605598663
316.46817471
316.949979745
313.922740449
314.300020679
316.403908729
316.957420491
319.832395927
322.189308738
322.910632154
319.534697903
320.232593794
322.933201565
323.757917582
325.81213719
327.387445564
328.247164794
326.173102048
327.096367656
328.904629813
329.891596874
330.007259565
330.00728566
330.917547744
330.88296263
331.906505716
331.908270784
332.948042931
313.955167176
316.336802709
316.971554872
313.08144053
313.560232376
316.256002587
316.980004674
320.706249969
323.804354914
324.756917341
320.324282878
321.257211416
324.8238724
325.933400431
328.622367174
330.71389171
331.862227817
329.191057565
330.444903516
332.895573257
334.249395154
334.191954138
334.195700204
335.399682098
335.576259453
336.978961635
336.982650768
338.401635913
313.104104276
316.145002561
316.968985159
311.975030882
312.566188345
315.973660499
316.904434321
321.881035607
326.020849506
327.321826991
321.3071499
322.566509218
327.418666635
328.973286315
332.647112178
335.57204943
337.188075898
333.55987242
335.354403539
338.918315431
340.888984801
340.450095595
340.451624816
342.162880743
342.837058058
344.89207931
344.894352866
347.019938024
311.916462683
315.699771238
316.74423383
310.431112519
311.126385268
315.268105331
316.426799152
323.271933165
329.024153052
330.904764651
322.206139297
323.923741112
330.814430485
333.105645637
338.723800316
343.18646667
345.678838391
340.107750976
342.976785184
348.771391094
352.142436875
350.763790937
350.767725358
353.57733198
355.697670355
360.786527419
360.782701756
367.424518129
310.182791054
314.612099226
315.863098311
308.341477068
309.068742811
313.666761557
314.979108606
324.275522659
332.665757855
335.467002774
322.147022048
324.28911064
334.260331164
337.730497805
348.325744011
355.055833229
362.025023609
344.811166541
352.27183292
372.11885939
388.546602083
366.851609402
366.84201761
375.194985705
379.425947984
307.745941358
312.281066689
313.577689669
323.293801227
335.031341648
333.996305623
354.762283706
378.427051195
378.352057324
365.167043931
375.312196626
373.002287006
387.588281401
373.690709054
371.298523263
366.678551894
387.531497496
380.865639389
365.539505895
370.787805625
374.477591128
369.425336113
372.825368776
383.454704446
380.854095001
365.523743764
370.781923866
374.460210277
369.417388672
372.79126528
383.453997994
382.679035592
373.680388423
373.683692603
389.105616034
372.216933346
386.29588831
386.29741917
385.53672648
372.078664992
389.051834304
388.954871201
375.006900994
374.991752682
387.186638521
379.602858358
376.877758324
389.014298346
387.164556702
379.586826007
376.844301879
389.018435084
388.578823137
390.657477865
390.733403965
374.393852661
353.182496772
366.969745316
356.652485279
364.966198237
354.879436115
376.194573571
374.431603875
366.906064198
388.484447892
370.166387446
366.444690084
383.479733254
375.467618053
372.313455985
384.564891452
388.464777473
302.647214644
302.667395027
303.296727302
303.530377836
305.593341151
306.20026652
310.283255543
363.985089295
347.188979093
351.9817735
359.370077132
377.037583284
357.678900677
355.689536803
379.174914899
376.760739209
367.474105852
384.950419445
386.219741835
374.636861877
363.082863156
363.073807902
365.138352169
366.998834483
369.592619055
369.573669256
347.194281691
351.798682837
364.361175131
346.24680683
350.363399885
356.087729359
361.153068474
388.20137193
388.129946028
386.946280981
362.132936747
365.299273609
362.346080358
385.419117094
357.823617788
370.188823831
367.532058433
378.583492888
384.726831567
383.927767374
388.429623336
384.452864105
383.65179798
378.945836483
385.231579239
389.044888637
388.884722099
389.040404828
388.891705421
382.251876427
387.873496918
387.713754353
387.888540228
377.853109118
388.133409658
382.706632086
381.85433919
376.563036209
383.887813329
383.055613485
382.656350775
383.879863102
380.396737523
377.659401474
384.83504923
384.81521502
379.007610956
379.003572699
386.662264151
382.19907878
383.105942971
388.781541233
388.772032633
388.482064409
382.657333365
382.656743408
381.279766533
385.865789109
380.277679523
388.020772662
379.852262221
387.610919287
381.733314913
381.292310911
385.88058314
380.272631296
388.027746288
379.855766169
387.650789181
381.737081087
385.01618356