/*--------------------------------*- C++ -*----------------------------------*\
| =========                 |                                                 |
| \\      /  F ield         | OpenFOAM: The Open Source CFD Toolbox           |
|  \\    /   O peration     | Version:  2.3.0                                 |
|   \\  /    A nd           | Web:      www.OpenFOAM.org                      |
|    \\/     M anipulation  |                                                 |
\*---------------------------------------------------------------------------*/
FoamFile
{
    version     2.0;
    format      ascii;
    class       volVectorField;
    location    "30/fluid";
    object      U;
}
// * * * * * * * * * * * * * * * * * * * * * * * * * * * * * * * * * * * * * //

dimensions      [0 1 -1 0 0 0 0];

internalField   nonuniform List<vector> 
25373
(
(-0.00252429275996 -0.00272043981703 -1.06296152477)
(0.00509660010457 0.00793773708967 -1.04320179658)
(-0.00274798656014 -0.00244148178795 -1.06292989494)
(0.00855912163799 0.00859642686473 -1.03014291819)
(0.00869399393589 0.0136159538441 -0.991220297531)
(0.00776997330719 0.00511638973615 -1.04320488745)
(0.0135151798583 0.00872274342295 -0.991202593607)
(0.0130408734307 0.0130986168412 -0.93428328921)
(-0.00659466094692 0.000205582678455 -1.06184225965)
(0.0112017989349 0.00143841109282 -1.02852770827)
(0.0172241930861 0.00358564805006 -0.964721258017)
(0.0156226329125 0.00515243231887 -0.897843766007)
(0.00130105026562 0.00339192184856 -1.07842687673)
(0.00847410737401 0.0166510176532 -1.05742564463)
(0.00340034924803 0.00129095375236 -1.07843202313)
(0.0155593450184 0.0155486919572 -1.03963452142)
(0.0156714800186 0.0254507812485 -0.991754609199)
(0.0166463127116 0.00844379356225 -1.05751994085)
(0.0254425444036 0.0156484848155 -0.991794623964)
(0.0237124042207 0.0237192124394 -0.918320176442)
(0.00241661287687 0.000719588279112 -1.07550670487)
(0.0223491117018 0.00330443750864 -1.03827359061)
(0.0320570133967 0.0067154203581 -0.957186827019)
(0.0282222785752 0.00929754460104 -0.869940742067)
(0.00142650538352 0.0043579654267 -1.09483052526)
(0.00545548333601 0.0123145877222 -1.08293169001)
(0.00435908723549 0.00141027510401 -1.09482767473)
(0.0124989773658 0.0125050932849 -1.0694876899)
(0.0147012550221 0.0247634073096 -1.02339002895)
(0.0123223798652 0.00543076328439 -1.08295863043)
(0.0247460646908 0.0147062882918 -1.02339466348)
(0.0251687473895 0.0251929018316 -0.943034604142)
(0.00301286720508 0.000229563404748 -1.09165910636)
(0.0223064946284 0.00292562523095 -1.06372921095)
(0.0345117631847 0.00783554336153 -0.981061748001)
(0.0327266211349 0.0125891895573 -0.879975168995)
(0.0021379789756 0.00456772684175 -1.11462666448)
(0.00738450735753 0.0145560868288 -1.0998440906)
(0.00457920349324 0.00213722926396 -1.11462854395)
(0.0158459098838 0.0158429963516 -1.08366630715)
(0.0190133275911 0.0301366853462 -1.02894594392)
(0.0145595363532 0.00736565842468 -1.09986642027)
(0.0301326061663 0.0190068722206 -1.02895069898)
(0.0319433610386 0.0319496258807 -0.931365480821)
(0.00348888039901 0.000426755324992 -1.11211771384)
(0.0246523925497 0.00441884486966 -1.07742223078)
(0.0412105351922 0.010811681695 -0.978283445738)
(0.0410844301808 0.0171585122666 -0.85314010725)
(0.00272435112928 0.00508119748576 -1.13824278515)
(0.00884562391789 0.0167242050299 -1.12133433002)
(0.00508321266306 0.00270594814273 -1.13824251874)
(0.0189386839589 0.0189339513513 -1.10240217203)
(0.02350729853 0.0366164446821 -1.03772210848)
(0.0167398790994 0.00883481003636 -1.12131988372)
(0.0366078825052 0.0234835434187 -1.0377445383)
(0.0405397622098 0.0405366763666 -0.918744069469)
(0.00408603426427 0.00061912463161 -1.13539923585)
(0.0284362304238 0.00553295482032 -1.0950371568)
(0.0505009980213 0.0138414527384 -0.97690527364)
(0.0528352982953 0.0227092959097 -0.821535940598)
(0.00313798531398 0.00564156371913 -1.16532386105)
(0.00996422135762 0.0189161252499 -1.14680970937)
(0.00564645697562 0.00315771750744 -1.16527067088)
(0.0219649952014 0.0219563265494 -1.12566891016)
(0.0283487321512 0.0440004989687 -1.05106646535)
(0.0190015680629 0.00999354971415 -1.14671206556)
(0.0440059725245 0.0283416376366 -1.05103845898)
(0.0516340895197 0.051639590637 -0.905472629469)
(0.00469070620932 0.000659559709647 -1.16220425732)
(0.0326959767482 0.00650194432547 -1.11711509052)
(0.062281518785 0.017288007075 -0.977632237996)
(0.0690418150624 0.0299164524234 -0.782503366819)
(0.00324900592913 0.00575731997941 -1.19477753743)
(0.0102884361684 0.0198796771956 -1.17584322005)
(0.00575093947288 0.00322020889626 -1.19471257782)
(0.0235038895831 0.023517591329 -1.15425798836)
(0.0324564099906 0.0503594725158 -1.071938944)
(0.0199884550526 0.0103325102453 -1.17573998729)
(0.050365686808 0.0325166411036 -1.0718135025)
(0.0650458383291 0.0651085797905 -0.895358942744)
(0.00488928674338 0.000589365274789 -1.19152486456)
(0.0350718804183 0.00704066788998 -1.14472327787)
(0.0746558814173 0.0209654431792 -0.985004260819)
(0.0908864869536 0.0394650148309 -0.736205807907)
(0.00261304071162 0.00468714452484 -1.22264673602)
(0.00849439627798 0.0170365565969 -1.20614867551)
(0.00470586538254 0.00261774963792 -1.22262905486)
(0.0207407266804 0.0207824198615 -1.18699707637)
(0.0325328511207 0.0505361303721 -1.1035403586)
(0.017063644483 0.00849021337319 -1.20612254207)
(0.0505538278207 0.0325936150143 -1.10334191274)
(0.0772380363775 0.0773683062101 -0.896937035319)
(0.00406684737685 0.00015116075541 -1.21968028058)
(0.0312531098529 0.0062929780107 -1.17729698399)
(0.0810651188937 0.0229819456211 -1.00613287951)
(0.117094051352 0.0514953651077 -0.686018186371)
(0.000609427688135 0.0014313102779 -1.24007755586)
(0.0028013559632 0.00665808800983 -1.23019298712)
(0.00143672933389 0.000604057652198 -1.24008109372)
(0.00943862555934 0.00945428632486 -1.21654773731)
(0.0214565928061 0.0333762713915 -1.14629619761)
(0.00664873666101 0.00279135477761 -1.23019139535)
(0.0333901914331 0.0214862112434 -1.14626346894)
(0.0745975114497 0.0747423495599 -0.926097290665)
(0.00132465738294 -0.000458727787669 -1.23819862152)
(0.0148030654531 0.00299878117481 -1.20878432855)
(0.0647951992606 0.0187621867971 -1.04955357298)
(0.129734973607 0.0608391261815 -0.648555646218)
(-0.00254101882138 -0.00381022010996 -1.23554116471)
(-0.00727891325654 -0.0123739665345 -1.23265474644)
(-0.00381171667071 -0.00254750511122 -1.23554328241)
(-0.0130381417767 -0.0130549707176 -1.22624916633)
(-0.00938069886229 -0.014052742619 -1.18377799467)
(-0.0123849067949 -0.00728611330278 -1.23264939689)
(-0.0140104201067 -0.0093864819973 -1.18370102887)
(0.0186655254986 0.0188186173253 -0.998384995866)
(-0.00309231180982 -0.00129224269075 -1.23542106857)
(-0.0185706453033 -0.00367876275645 -1.22231490153)
(-0.000696752543533 0.00164184486064 -1.10794341382)
(0.0650933237499 0.0233293408356 -0.721829838036)
(-0.000942373845798 -0.0053704574977 -1.06187929437)
(0.000983849104654 0.00119679673809 -1.07465402961)
(0.00105828048775 -0.0069792896158 -1.06231078704)
(-0.00127168462351 -0.0038930251566 -1.0604996959)
(0.000218853700136 -0.00410460798945 -1.06147554939)
(0.00146229380945 0.000352270114447 -1.07474096522)
(0.000426642541336 0.00331334072399 -1.07281096025)
(0.00179024590745 0.00380303354476 -1.07196434943)
(-0.00305034110543 -0.00464134175647 -1.06376655453)
(-0.00465166444436 -0.00297505270751 -1.06376020561)
(-0.00207719848376 -0.00206159203688 -1.06324706488)
(0.00104059376223 0.000380016646849 -1.07689801022)
(0.000376527202087 0.00105264956614 -1.07690008563)
(0.00273911584532 0.00274077278738 -1.07475094006)
(-0.000779970473439 -0.00216095258929 -1.06089419298)
(0.00127691526069 0.00078978892521 -1.0559623113)
(0.00284337368954 0.0037323633101 -1.04978998625)
(0.00139789239054 0.00231111277708 -1.07609966223)
(0.00335145387108 0.00400065846324 -1.0722426083)
(0.00451261850208 0.00668677443412 -1.06678120858)
(0.00722759217775 0.0095010697422 -1.05810432855)
(-0.00543649132007 -0.000551469731169 -1.06184404097)
(0.00117064569582 0.000971385864767 -1.07459779352)
(0.000752130589312 0.00128916129892 -1.05595137359)
(-0.0021156810282 -0.000634370914741 -1.06086815252)
(0.00367466722817 0.0028969736 -1.04980591733)
(0.00230107103639 0.00140527045721 -1.07611484645)
(0.00667317667166 0.00451188979525 -1.06678716513)
(0.00398666600221 0.00337284316899 -1.07225263569)
(0.00946792844292 0.00725045878523 -1.05811610703)
(-0.00435452636759 -0.00118114224704 -1.06036359745)
(-0.00748732714339 0.000812068420398 -1.06213597882)
(-0.00462287178305 1.23212792743e-05 -1.06140636223)
(0.00325983034977 0.000402365215422 -1.07287615859)
(0.000409447217303 0.00152359590221 -1.0748714631)
(0.00385021153795 0.00180260065957 -1.07200187969)
(-0.00165210140457 0.000861696064377 -1.05667065682)
(-0.00677657525832 0.000186240699201 -1.06190564997)
(-0.00101118422997 0.000113791138781 -1.05560928859)
(0.00132143534117 0.000880856041809 -1.07485948866)
(0.00706181605324 0.0016305688974 -1.06693615303)
(0.00140914128216 0.000316311740477 -1.07497221955)
(0.00803080696111 0.000450370787821 -1.06525506929)
(0.00153538054553 0.00103855650651 -1.07633392754)
(0.000870227872264 0.00164759506709 -1.08720987602)
(0.00174202104066 0.000548325045802 -1.07574743971)
(0.000959473555488 0.00272353810996 -1.07500837199)
(0.00227737476559 0.00352079848072 -1.07408287456)
(0.00161270096966 0.000863824334678 -1.0858924738)
(0.000770459967069 0.00350668088456 -1.08640956537)
(0.00245386448542 0.004963564806 -1.08362082655)
(0.000759155658032 0.000945930996943 -1.07868915811)
(0.000959372043575 0.000752339329905 -1.07869034102)
(0.00310763309206 0.003098309627 -1.0768763908)
(0.000828879346857 0.00129343264652 -1.08942392842)
(0.00129286626985 0.000820760605491 -1.08942061521)
(0.00368789137944 0.00368749718602 -1.08700788011)
(0.00302761790128 0.00459648604844 -1.07496681731)
(0.0062565146654 0.0068373863433 -1.06944235878)
(0.00753430687856 0.0105891450259 -1.06051796083)
(0.00158244956655 0.00395964591787 -1.08914009901)
(0.00346057901183 0.00584455765177 -1.08521520253)
(0.00767213124326 0.00756467694899 -1.07917323863)
(0.0106091310879 0.0134350218251 -1.06711786126)
(0.000995283395908 0.00153669459286 -1.0763099759)
(0.00161785960208 0.000840844076681 -1.08718997038)
(0.0068468552435 0.00623285449701 -1.06944605695)
(0.00457015610786 0.00300259828336 -1.07497685774)
(0.010577463192 0.00749216084217 -1.06053721466)
(0.00395889963054 0.001565074147 -1.08914122135)
(0.00756269820596 0.00766315882553 -1.07917819776)
(0.00582409903397 0.00343673478896 -1.08523326436)
(0.0134315045012 0.0105941401518 -1.06712668426)
(0.00268009777217 0.000933601047045 -1.07494161526)
(0.000583455853449 0.00176205620849 -1.07566959151)
(0.00351584738149 0.00225865646056 -1.0740417126)
(0.00351262982082 0.000696713197898 -1.08642679442)
(0.000933105856554 0.00163306995601 -1.08589472108)
(0.00501380152581 0.00242119189108 -1.08363198563)
(0.00759045569439 0.00230215928186 -1.06896443363)
(0.00266698955382 0.00038398339618 -1.07532719482)
(0.00878449472103 0.000673783448973 -1.06709797726)
(0.00264448863504 0.000556612704206 -1.08612283742)
(0.00909648313265 0.00230147411315 -1.07873796964)
(0.00302307240725 0.000498542700679 -1.08569551801)
(0.0107962171574 0.000836304258708 -1.07608161415)
(0.00071470536906 0.00122579471474 -1.0943583364)
(0.00161648246408 0.001350109857 -1.10472349623)
(0.00100370421054 0.00134326106597 -1.09217633166)
(0.0021707536963 0.00109750825203 -1.09335874086)
(0.00320804579895 0.00508870648797 -1.09021985184)
(0.001483135737 0.0015246681233 -1.10297702226)
(0.0015074639943 0.00400538135223 -1.10311697604)
(0.00295442464897 0.00626578830319 -1.10090706005)
(-3.52442146113e-06 0.00203495514169 -1.09579314783)
(0.00203293088787 -1.0571986475e-05 -1.09579205579)
(0.00364035892972 0.00364572149009 -1.09402760309)
(0.00107560358062 0.00138488943595 -1.1058328682)
(0.00139181114461 0.00107865233629 -1.10583407571)
(0.00420065756022 0.00419850820396 -1.10420288094)
(0.00248171333911 0.00661857124566 -1.09198176997)
(0.00969174843645 0.00573456107607 -1.08597664561)
(0.0117904698694 0.0142204088031 -1.07298226064)
(0.00199086099994 0.00427538987769 -1.10428609945)
(0.00446257503637 0.00665246600083 -1.10149864957)
(0.00927674944614 0.00951643241626 -1.09478447651)
(0.0111184537953 0.0156383522057 -1.08286016886)
(0.00117200450537 0.000694970749097 -1.09436704313)
(0.0013784108072 0.00162800062289 -1.10476079914)
(0.0057261837875 0.00969361837418 -1.08598208462)
(0.00657124104744 0.00249595638546 -1.09199177951)
(0.0142116152144 0.0118013900465 -1.07300133375)
(0.00429012673089 0.00198844375533 -1.10427810444)
(0.00951423816601 0.00927200130559 -1.09479351739)
(0.00667215199549 0.0044664025979 -1.10150906624)
(0.0156459840822 0.0111183787079 -1.08289220955)
(0.00113344699697 0.0021104758506 -1.09336497486)
(0.00138842013508 0.000995885899452 -1.09211047096)
(0.00511900147863 0.00317348083955 -1.09018159712)
(0.00402562500892 0.00150908863803 -1.10314484476)
(0.00149098656655 0.00146820100909 -1.10297682882)
(0.00623893707384 0.00293860337478 -1.10093029312)
(0.00811988646521 0.00264246588685 -1.08496135518)
(0.00376339965505 0.000629312980291 -1.09138657933)
(0.0105255533747 0.00130553423846 -1.08220295232)
(0.00328378681416 0.000395061905254 -1.10214339344)
(0.0113900040609 0.002700160417 -1.09482726785)
(0.00390848966818 0.000445802135885 -1.10202171743)
(0.0133132399754 0.0010279158991 -1.09235842813)
(0.00177712714319 0.00135804126283 -1.11456676818)
(0.00207404320535 0.00155685581338 -1.12594450887)
(0.00161057818879 0.00150939655015 -1.11262018146)
(0.00182796352114 0.0038986237226 -1.11327442949)
(0.00330875629022 0.00631259065375 -1.11038769762)
(0.00180251801944 0.00150541119396 -1.12396673633)
(0.00177308000754 0.00479220109369 -1.12449412662)
(0.00336384917777 0.00688428110343 -1.12154521861)
(0.0010291153407 0.00151953636087 -1.11585221982)
(0.00153427744998 0.001043028757 -1.11586008773)
(0.0044519800032 0.00444374624428 -1.1138929486)
(0.00151918944756 0.00128839562782 -1.12734535887)
(0.00131794647599 0.00153738129364 -1.12734272012)
(0.0048608280616 0.0048418946932 -1.12526524382)
(0.00470491085439 0.00716440593759 -1.11123833959)
(0.0101843296281 0.0100265986573 -1.10405216731)
(0.0122070270436 0.0169830566245 -1.08990204545)
(0.00245608941342 0.00474034238865 -1.12589401247)
(0.00535635760683 0.00762062966175 -1.1222641298)
(0.0106447702578 0.0115254185248 -1.1144989497)
(0.0129816628504 0.0187072660728 -1.09943802723)
(0.0013986466042 0.00179089934379 -1.11455107574)
(0.00155829511667 0.00208301427068 -1.12593929676)
(0.0100207274322 0.0101730476392 -1.1040646369)
(0.00718663966939 0.00470367839368 -1.11123376285)
(0.0169899032845 0.0121962344892 -1.08992526415)
(0.00475029715909 0.00246877476409 -1.12591177293)
(0.0115190276223 0.0106356313822 -1.11453337051)
(0.00762240802206 0.0053557364956 -1.1222674488)
(0.0187006205853 0.0129767875166 -1.09948729845)
(0.0039102993854 0.00182540684557 -1.1132720959)
(0.0014464536347 0.00154108609176 -1.11267339186)
(0.00627151359079 0.00327071223227 -1.11040402902)
(0.00478478965624 0.00177630274458 -1.12452573052)
(0.00148015293989 0.00182213615153 -1.12409355135)
(0.00693719239427 0.00339850047393 -1.12157504213)
(0.0118129221007 0.00296603197193 -1.10424177596)
(0.00417464224074 0.000553028783875 -1.11177363244)
(0.0139305569038 0.00119648413398 -1.10126571891)
(0.0037824287732 0.000544518580398 -1.1234173582)
(0.0133361954202 0.00318570334635 -1.11481357117)
(0.00443360186543 0.000525180789646 -1.12310265386)
(0.0155137916331 0.00115365513298 -1.11169619402)
(0.00224269496298 0.00165774697892 -1.13795667738)
(0.0023766754625 0.00177434932177 -1.15102269314)
(0.00196124466144 0.00156023527495 -1.13584731498)
(0.00189648513546 0.00513735327399 -1.13652227495)
(0.00361614953688 0.00733661104127 -1.13321693875)
(0.00208788745158 0.00167564633162 -1.14883606018)
(0.00191670976744 0.00562160501963 -1.14949237746)
(0.00377287551105 0.00791725186939 -1.14601101026)
(0.0017495523714 0.00139097811457 -1.1396447567)
(0.00139414334621 0.00173022929283 -1.1396273752)
(0.00527374386757 0.0052658618032 -1.13729570312)
(0.00202928705484 0.00141519082473 -1.15288092373)
(0.00141203935354 0.00202258137779 -1.15287493862)
(0.00568847929302 0.00569471468941 -1.15038851107)
(0.0057924789971 0.00818536237227 -1.13417884474)
(0.0114912335757 0.0125251196073 -1.12589765925)
(0.0140958698549 0.020335812932 -1.10933024619)
(0.00296448194434 0.00536410611627 -1.15138848528)
(0.00619729999214 0.00868760868656 -1.1470674684)
(0.0122040711817 0.0135933439055 -1.13833432627)
(0.015100453519 0.0219632427959 -1.12075307097)
(0.00164480456304 0.00223220935595 -1.1379503024)
(0.00176087084553 0.00237226566891 -1.15104097601)
(0.0125197424482 0.0114706325541 -1.12591577726)
(0.00817041761144 0.00577906474829 -1.13417038687)
(0.0203207793192 0.0140774124187 -1.10936441397)
(0.00537145350037 0.00296946436396 -1.15135761746)
(0.0135938365281 0.0122086827052 -1.1383192594)
(0.00867769233701 0.00620027454221 -1.14703778767)
(0.0219589620251 0.0151026725678 -1.12075408433)
(0.0051564374824 0.00189284489603 -1.13657686203)
(0.00159615213825 0.00197794970664 -1.13602657505)
(0.00748351571829 0.00366276871775 -1.13325514665)
(0.00565654960052 0.001928343681 -1.14959250464)
(0.00172544725446 0.00211783709489 -1.1490745973)
(0.00810588053838 0.00385174232226 -1.1460869579)
(0.0144276177722 0.00344538709939 -1.12607871419)
(0.00474921705581 0.000573020832823 -1.13498816095)
(0.0167430773904 0.00124033163412 -1.12263538099)
(0.00438844759172 0.000695481970744 -1.14842996998)
(0.0156101325242 0.00366945638559 -1.13847631228)
(0.00500924173012 0.000556893275707 -1.14804959206)
(0.0180167985312 0.00127182426414 -1.13485972949)
(0.00247246489817 0.00191088457352 -1.16481818357)
(0.00248384672901 0.00199595369587 -1.17936624095)
(0.0021514887899 0.00180240575065 -1.1625698068)
(0.00197015897228 0.00598592027232 -1.16324080725)
(0.00393117374731 0.00844574400576 -1.15954866793)
(0.00210197123193 0.00192677912993 -1.17711057462)
(0.00195442638823 0.00626008788485 -1.17772360144)
(0.00398041096777 0.00887020799492 -1.17392509863)
(0.00217189134976 0.0014522118847 -1.16689717807)
(0.00147326284869 0.00218886398549 -1.16686026851)
(0.00604032395722 0.00602289354066 -1.16424654007)
(0.00229305321806 0.00151577585675 -1.18156586018)
(0.00146596828584 0.00227017605742 -1.18151874349)
(0.00622531065396 0.00626199452607 -1.17885715329)
(0.00652406530024 0.00920174363135 -1.16074211383)
(0.0129113736731 0.0144468083376 -1.15172099814)
(0.0160980819173 0.0234259783749 -1.13320931584)
(0.00324457483451 0.00579575948842 -1.17995323706)
(0.00669144969159 0.00951207125977 -1.17522061241)
(0.0133026122865 0.015016899081 -1.16616934912)
(0.0167776623582 0.0244933651446 -1.14709435533)
(0.00192910112289 0.00247777312881 -1.16488288596)
(0.00206465550857 0.00251657163226 -1.17942790146)
(0.0144545223022 0.0129032300331 -1.15169495469)
(0.00921417647199 0.00653093657917 -1.16069714142)
(0.0234353348793 0.0160899902595 -1.13318070148)
(0.00579010788897 0.00322860911002 -1.17987348099)
(0.0150085007489 0.0133150110696 -1.16612452336)
(0.00957651350691 0.00670042796613 -1.17515452084)
(0.024500528497 0.0167855604007 -1.14704250179)
(0.00606278971842 0.00199925108491 -1.16337152667)
(0.00186462448553 0.00216530471474 -1.16286410382)
(0.00867606940892 0.00401134722271 -1.15965280262)
(0.00633350960668 0.00202365198672 -1.17788139547)
(0.00199389984282 0.00216341289125 -1.1774400714)
(0.00910062025174 0.00408256166527 -1.17403881522)
(0.0165934609582 0.00382170077207 -1.15169675418)
(0.00539351420322 0.000614581951667 -1.16178005741)
(0.0191535551506 0.00134223573368 -1.14791902896)
(0.00487983364835 0.000672224920617 -1.17670245036)
(0.0172940378416 0.00391759371766 -1.16586117434)
(0.00550872824744 0.000575408454443 -1.17624383778)
(0.0198632799678 0.0013397852496 -1.16197835886)
(0.00242138260674 0.0020611530123 -1.1941503717)
(0.00217305004522 0.00206210716104 -1.2088101184)
(0.00194309355695 0.00199802215083 -1.19198476553)
(0.00188027950075 0.00633510176921 -1.19248739048)
(0.00388762467443 0.00904123242265 -1.18867865375)
(0.00167259332103 0.00202728565677 -1.20676779239)
(0.00168594030296 0.00607614636606 -1.20718983206)
(0.00358406836236 0.00880254159449 -1.20344607602)
(0.00228805827217 0.0014866820662 -1.19633893803)
(0.00147641932136 0.0022673686539 -1.19630488439)
(0.0062026950526 0.00620836663995 -1.19365903406)
(0.00212818454722 0.00139299841482 -1.21085824959)
(0.00141681895743 0.00212097704929 -1.2108256796)
(0.00585207625724 0.0058232445306 -1.20828683561)
(0.00670262334601 0.00960003595933 -1.18998105223)
(0.0133131804615 0.0150527664631 -1.18116983133)
(0.0170969128809 0.0248813682685 -1.16183890593)
(0.00304802737899 0.00545903203947 -1.20937440932)
(0.00630442748421 0.00923378220667 -1.20474189576)
(0.0126513396137 0.0143798355368 -1.1965024393)
(0.0166065698131 0.0241918638258 -1.17762678937)
(0.00209451579766 0.00243133615601 -1.19421490685)
(0.00207825452863 0.00218073480979 -1.20882316806)
(0.01504401264 0.0133059772868 -1.18116796415)
(0.00960433332931 0.00665981435458 -1.18996792639)
(0.0248619814447 0.0170599296473 -1.16189206597)
(0.00544199705226 0.00303221717024 -1.20933846226)
(0.0143686154674 0.0126257823369 -1.19649550399)
(0.00921934595263 0.00627451172353 -1.20471583266)
(0.0241631741863 0.0165701214943 -1.17761804906)
(0.00639731487007 0.00194087477887 -1.19267213517)
(0.0021090824275 0.00203518476965 -1.19226930087)
(0.00924070238481 0.00396574623002 -1.18880894997)
(0.00613467762704 0.0017387240881 -1.20729363466)
(0.00203415706037 0.00167945090507 -1.20691867532)
(0.00886061346627 0.00360773928725 -1.20353638573)
(0.0173696626145 0.00382339230417 -1.18072012166)
(0.00555638267546 0.00051820058141 -1.19111360208)
(0.0199978245604 0.00131560208207 -1.17679578278)
(0.00464248772659 0.000399382757787 -1.20618808978)
(0.0165444103666 0.00350329687751 -1.19585669789)
(0.00529324010737 0.000441918216832 -1.20580000623)
(0.0190738508317 0.00122333439412 -1.1920453673)
(0.00175354412472 0.00190980078185 -1.22217014466)
(0.00102259103922 0.00150341369076 -1.2333249769)
(0.00120517889288 0.00188681877631 -1.22031605543)
(0.00136960296364 0.00535801225264 -1.22064469678)
(0.00297689342949 0.0078685705231 -1.21719528841)
(0.000425476883774 0.00146772224023 -1.23179015186)
(0.000724578277881 0.003905867589 -1.23198114182)
(0.00185421063603 0.00592445422295 -1.22893419181)
(0.0018025630626 0.00122610295043 -1.22395198053)
(0.00122859351069 0.00180218379208 -1.22393942414)
(0.0050360640404 0.00503969753775 -1.22167537102)
(0.00122669860881 0.000868566331214 -1.23477510758)
(0.000882125931303 0.00121063704309 -1.23477734099)
(0.00358153916826 0.00356476849407 -1.23283243195)
(0.00544434284993 0.00815161201685 -1.21843347717)
(0.0109951071172 0.0125743305068 -1.21125033771)
(0.0149460486515 0.0216916757914 -1.19369001032)
(0.00173966551017 0.00328696434663 -1.23369272519)
(0.00384776644906 0.00610556991928 -1.22996554058)
(0.00805032801829 0.00927429942204 -1.22418121451)
(0.011667113058 0.0168447043697 -1.20882627305)
(0.00190945911542 0.00170980560671 -1.22218969087)
(0.00149843689615 0.00100840841881 -1.2333455579)
(0.0125894832374 0.0110278082872 -1.21121888273)
(0.00815917094089 0.00542655844007 -1.21841397909)
(0.021739144384 0.014960011318 -1.19361736139)
(0.00329522220882 0.00172873621253 -1.23369672397)
(0.00928930731552 0.00803706230729 -1.22419164677)
(0.00610006079499 0.00382745498939 -1.22997631745)
(0.0168748032981 0.0116439426308 -1.20883799925)
(0.00537629180588 0.00135712700674 -1.22069618962)
(0.00186982443481 0.00116711054896 -1.22039661011)
(0.00786895923153 0.00296598338137 -1.21725865956)
(0.00388717593389 0.000716851045094 -1.23198996597)
(0.00146086746337 0.000434934152954 -1.23179489081)
(0.00590051732342 0.00185625968029 -1.22894726866)
(0.0145424449364 0.00291543302668 -1.21036845356)
(0.00459490237984 0.000308118658966 -1.21934117633)
(0.0167426247383 0.00102604884387 -1.2068843586)
(0.00292569457714 -0.000138759658197 -1.23112861041)
(0.0108003422938 0.00194518755975 -1.22320312563)
(0.0032464985715 0.000124356850586 -1.23082762153)
(0.012421011532 0.000695830609964 -1.22018446976)
(8.97003020428e-05 0.000866696842072 -1.23968892569)
(-0.001068989217 9.94073007907e-05 -1.2412035129)
(-0.000411961671187 0.000847179085917 -1.23872998647)
(-8.0529109867e-05 0.00182467401679 -1.23883856287)
(0.000435341251061 0.00304630445513 -1.23679868266)
(-0.00140747695296 7.47619188794e-05 -1.24069316656)
(-0.000989328245406 -0.000449186971518 -1.24058810821)
(-0.00133503959923 -0.00068494405764 -1.23934533827)
(0.000472054221439 0.000398428931716 -1.24060935364)
(0.00040444043809 0.000465213527041 -1.24061038889)
(0.00161089400973 0.0016051171811 -1.23953681538)
(-0.000460117848451 -0.000167295979357 -1.24178335588)
(-0.000156156227783 -0.000474195901786 -1.24178517367)
(-0.00100619343664 -0.00102049118228 -1.24115975273)
(0.00160067249335 0.00305584544813 -1.2376651846)
(0.00380031176107 0.00450428586465 -1.23362335885)
(0.00649961226326 0.00929955473439 -1.22137989393)
(-0.000697169331855 -0.000715092961718 -1.24147174705)
(-0.00136172503843 -0.00100468590735 -1.23987935803)
(-0.00182878198212 -0.00192303393213 -1.23753950042)
(-0.000730620002475 -0.00126128294754 -1.22880959019)
(0.000872732783416 7.95778172835e-05 -1.23969704898)
(0.000110554132452 -0.00107886757361 -1.24120445778)
(0.00450907720728 0.00379369550036 -1.23362913007)
(0.00305800153619 0.00158857402101 -1.23767185721)
(0.0093153429919 0.00648394645682 -1.2213876737)
(-0.000708501866147 -0.000711227870654 -1.24147504809)
(-0.00190755397823 -0.00185463302988 -1.23754096973)
(-0.00100001970459 -0.00137880504185 -1.23988324323)
(-0.00125474349008 -0.000770323984897 -1.22880963071)
(0.00182114794357 -8.30080739175e-05 -1.23884409099)
(0.000843176699931 -0.000420882739152 -1.23873428925)
(0.00303943443456 0.000431169149424 -1.23680283858)
(-0.000451478745538 -0.000988349813341 -1.24058924845)
(7.47378613718e-05 -0.00140834336046 -1.24069404188)
(-0.000689776640772 -0.00133068545981 -1.2393435892)
(0.00528241964661 0.000612715395996 -1.23276953704)
(0.00138274800746 -9.6418863405e-05 -1.23801702348)
(0.00604963811606 0.000242712749462 -1.23041404193)
(-0.000460756020574 -0.000857413525419 -1.24020175009)
(-0.00205258133202 -0.00112867158943 -1.23692464675)
(-0.000633638494462 -0.000331214864525 -1.24010304383)
(-0.00243589460747 -0.000349775205384 -1.2353547588)
(-0.00260051657514 -0.000924486388948 -1.23559086487)
(-0.00265067053733 -0.000970225512584 -1.23570685732)
(-0.00227451418164 -0.00391823349652 -1.23539964255)
(-0.00347155230451 -0.00544701478696 -1.23470874835)
(-0.00171096456494 -0.000903977573753 -1.23553190228)
(-0.000900638208523 -0.00171538394939 -1.23553355516)
(-0.00416163551078 -0.00416805972104 -1.23522936767)
(-0.0048840755794 -0.00594466832711 -1.23473448181)
(-0.00888537687305 -0.00982038820446 -1.23383818774)
(-0.00998297733127 -0.0145622373573 -1.22869088677)
(-0.000934424890598 -0.00261186685486 -1.23558691311)
(-0.00980868772718 -0.00889308754774 -1.23383309173)
(-0.00595090094455 -0.0048941386597 -1.23473557621)
(-0.0145564006266 -0.00999653949291 -1.22867411961)
(-0.0039250245851 -0.00227879439422 -1.23539521806)
(-0.000968237043565 -0.00265019866667 -1.23570540404)
(-0.00544668169598 -0.003467459218 -1.23470051884)
(-0.0109666027246 -0.00318992015386 -1.23379595043)
(-0.00373599571302 -0.000686785112189 -1.23539590731)
(-0.0127798021517 -0.00110361532926 -1.23277076311)
(0.00533464666317 0.0206913070666 -1.07268894786)
(0.0137570644696 0.016904753849 -1.05783563885)
(0.0116620240201 0.0249334342103 -1.04245320674)
(0.00684240872478 0.0134846109938 -1.08869381228)
(0.00627839234017 0.0194359219834 -1.07939834071)
(0.0119806229453 0.0207035545739 -1.06541377248)
(0.0108901140686 0.0264011602357 -1.05011915326)
(0.0137488042474 0.02329444638 -1.04716452652)
(0.0232851260187 0.0137638243199 -1.04717581463)
(0.0239267670705 0.023944357404 -1.01708463324)
(0.0144917945961 0.0144919185497 -1.07302322075)
(0.0169216354014 0.0217555921556 -1.05251908658)
(0.0217567851057 0.0169264220556 -1.05252721088)
(0.0242701326587 0.0242806365021 -1.02298044354)
(0.013597073786 0.0327979502363 -1.00012963228)
(0.0232763790461 0.0263305326264 -0.98350941988)
(0.0205025746608 0.0342364633349 -0.954077734082)
(0.0169903473939 0.027094628873 -1.02163295084)
(0.0150808573146 0.0333546307366 -0.999445538469)
(0.023595562699 0.0298313300716 -0.983698692985)
(0.0203792253374 0.0355899313415 -0.95545990977)
(0.0168797690997 0.0137749802106 -1.05785478504)
(0.0207206898947 0.00529094104847 -1.07270964414)
(0.0249615244167 0.0116548667783 -1.04252015868)
(0.0134936878483 0.00683866426235 -1.08874343004)
(0.0206992169381 0.0119927934492 -1.06547191811)
(0.019412225651 0.00624294428343 -1.07947564931)
(0.0263877288886 0.0108651629376 -1.05026575301)
(0.0263066745089 0.023293252454 -0.983505920287)
(0.0327684302513 0.0135804154397 -1.00016300553)
(0.0342036614639 0.020513870158 -0.95408776837)
(0.027085275795 0.0170004332584 -1.02164892733)
(0.0298193422746 0.0236131561396 -0.983707525197)
(0.0333317354091 0.0150727824559 -0.999527672864)
(0.0355680750715 0.0203909875518 -0.955496568595)
(0.0226510089959 0.031577280142 -0.907302717301)
(0.0315203501908 0.0226518535499 -0.907306184554)
(0.0276069096097 0.027641998416 -0.867069697205)
(0.0285613861304 0.0285805338741 -0.932633340282)
(0.0244378902711 0.033766267014 -0.897612343962)
(0.0337340264021 0.0244564201076 -0.897615979397)
(0.0283501069228 0.0283952475765 -0.858643834881)
(0.0266840559391 0.00712721809076 -1.02800842026)
(0.0258225978149 0.00214041876337 -1.05823046495)
(0.0299268404638 0.0037236462797 -1.0202349834)
(0.0227508034079 0.00408063961135 -1.06771973759)
(0.0302894589203 0.00714280725725 -1.03379501014)
(0.0251934907042 0.00183286047584 -1.0626547654)