/*--------------------------------*- C++ -*----------------------------------*\
| =========                 |                                                 |
| \\      /  F ield         | OpenFOAM: The Open Source CFD Toolbox           |
|  \\    /   O peration     | Version:  2.3.0                                 |
|   \\  /    A nd           | Web:      www.OpenFOAM.org                      |
|    \\/     M anipulation  |                                                 |
\*---------------------------------------------------------------------------*/
FoamFile
{
    version     2.0;
    format      ascii;
    class       volVectorField;
    location    "30/fluid";
    object      U_0;
}
// * * * * * * * * * * * * * * * * * * * * * * * * * * * * * * * * * * * * * //

dimensions      [0 1 -1 0 0 0 0];

internalField   nonuniform List<vector> 
25373
(
(-0.00252429275998 -0.00272043981708 -1.06296152478)
(0.00509660010387 0.0079377370898 -1.04320179659)
(-0.00274798655954 -0.00244148178883 -1.06292989494)
(0.00855912163822 0.00859642686427 -1.03014291819)
(0.00869399393559 0.0136159538441 -0.991220297536)
(0.00776997330779 0.00511638973466 -1.04320488745)
(0.0135151798589 0.00872274342191 -0.991202593612)
(0.0130408734307 0.0130986168405 -0.934283289216)
(-0.00659466094656 0.000205582676 -1.06184225965)
(0.0112017989353 0.00143841109061 -1.02852770828)
(0.0172241930866 0.00358564804814 -0.964721258021)
(0.0156226329126 0.00515243231724 -0.897843766013)
(0.00130105026562 0.00339192184857 -1.07842687673)
(0.00847410737342 0.0166510176534 -1.05742564463)
(0.00340034924856 0.00129095375163 -1.07843202313)
(0.0155593450186 0.0155486919569 -1.03963452143)
(0.0156714800181 0.0254507812483 -0.991754609202)
(0.0166463127122 0.008443793561 -1.05751994085)
(0.0254425444039 0.0156484848144 -0.991794623967)
(0.0237124042203 0.0237192124384 -0.918320176445)
(0.00241661287722 0.000719588276909 -1.07550670487)
(0.0223491117023 0.00330443750655 -1.03827359061)
(0.032057013397 0.00671542035602 -0.957186827022)
(0.0282222785748 0.00929754459894 -0.86994074207)
(0.00142650538343 0.00435796542666 -1.09483052527)
(0.00545548333546 0.0123145877222 -1.08293169001)
(0.00435908723579 0.00141027510342 -1.09482767473)
(0.0124989773657 0.0125050932845 -1.0694876899)
(0.0147012550216 0.0247634073092 -1.02339002896)
(0.0123223798655 0.00543076328339 -1.08295863043)
(0.0247460646908 0.0147062882909 -1.02339466349)
(0.025168747389 0.0251929018307 -0.943034604144)
(0.0030128672053 0.000229563403112 -1.09165910636)
(0.0223064946284 0.00292562522947 -1.06372921095)
(0.0345117631846 0.00783554336005 -0.981061748003)
(0.0327266211344 0.0125891895558 -0.879975168997)
(0.0021379789755 0.00456772684174 -1.11462666448)
(0.0073845073571 0.0145560868288 -1.0998440906)
(0.00457920349345 0.00213722926356 -1.11462854395)
(0.0158459098837 0.0158429963513 -1.08366630715)
(0.0190133275907 0.0301366853459 -1.02894594392)
(0.0145595363533 0.00736565842395 -1.09986642027)
(0.0301326061662 0.0190068722199 -1.02895069898)
(0.0319433610381 0.0319496258799 -0.931365480822)
(0.00348888039916 0.000426755323848 -1.11211771384)
(0.0246523925497 0.00441884486859 -1.07742223078)
(0.041210535192 0.0108116816939 -0.978283445739)
(0.0410844301803 0.0171585122654 -0.853140107251)
(0.0027243511292 0.00508119748576 -1.13824278515)
(0.00884562391758 0.0167242050299 -1.12133433002)
(0.00508321266319 0.00270594814247 -1.13824251874)
(0.0189386839588 0.0189339513511 -1.10240217203)
(0.0235072985296 0.0366164446818 -1.03772210848)
(0.0167398790995 0.00883481003588 -1.12131988372)
(0.0366078825051 0.0234835434182 -1.0377445383)
(0.0405397622095 0.0405366763661 -0.91874406947)
(0.00408603426436 0.000619124630872 -1.13539923585)
(0.0284362304238 0.00553295481963 -1.0950371568)
(0.0505009980211 0.0138414527376 -0.976905273641)
(0.0528352982948 0.0227092959089 -0.821535940599)
(0.00313798531392 0.00564156371913 -1.16532386105)
(0.00996422135741 0.0189161252499 -1.14680970937)
(0.00564645697569 0.00315771750729 -1.16527067088)
(0.0219649952013 0.0219563265493 -1.12566891016)
(0.028348732151 0.0440004989686 -1.05106646535)
(0.019001568063 0.00999354971386 -1.14671206556)
(0.0440059725244 0.0283416376363 -1.05103845898)
(0.0516340895195 0.0516395906366 -0.905472629469)
(0.00469070620937 0.000659559709202 -1.16220425732)
(0.0326959767481 0.00650194432506 -1.11711509052)
(0.0622815187848 0.0172880070745 -0.977632237996)
(0.0690418150621 0.0299164524229 -0.782503366819)
(0.00324900592908 0.00575731997941 -1.19477753743)
(0.0102884361683 0.0198796771955 -1.17584322005)
(0.00575093947291 0.00322020889617 -1.19471257782)
(0.023503889583 0.0235175913289 -1.15425798836)
(0.0324564099905 0.0503594725157 -1.071938944)
(0.0199884550526 0.0103325102451 -1.17573998729)
(0.0503656868079 0.0325166411034 -1.0718135025)
(0.0650458383289 0.0651085797903 -0.895358942744)
(0.00488928674341 0.000589365274538 -1.19152486456)
(0.0350718804183 0.00704066788976 -1.14472327787)
(0.0746558814172 0.020965443179 -0.985004260819)
(0.0908864869534 0.0394650148306 -0.736205807907)
(0.00261304071159 0.00468714452484 -1.22264673602)
(0.00849439627791 0.0170365565969 -1.20614867551)
(0.00470586538255 0.00261774963788 -1.22262905486)
(0.0207407266804 0.0207824198615 -1.18699707637)
(0.0325328511206 0.050536130372 -1.1035403586)
(0.017063644483 0.00849021337311 -1.20612254207)
(0.0505538278207 0.0325936150142 -1.10334191274)
(0.0772380363773 0.07736830621 -0.896937035319)
(0.00406684737686 0.000151160755279 -1.21968028058)
(0.0312531098529 0.00629297801059 -1.17729698399)
(0.0810651188936 0.022981945621 -1.00613287951)
(0.117094051352 0.0514953651076 -0.686018186371)
(0.000609427688117 0.00143131027791 -1.24007755586)
(0.00280135596316 0.00665808800983 -1.23019298712)
(0.00143672933389 0.000604057652183 -1.24008109372)
(0.00943862555931 0.00945428632484 -1.21654773731)
(0.021456592806 0.0333762713915 -1.14629619761)
(0.00664873666101 0.00279135477757 -1.23019139535)
(0.0333901914331 0.0214862112434 -1.14626346894)
(0.0745975114496 0.0747423495599 -0.926097290665)
(0.00132465738295 -0.000458727787732 -1.23819862152)
(0.0148030654531 0.00299878117477 -1.20878432855)
(0.0647951992606 0.0187621867971 -1.04955357298)
(0.129734973607 0.0608391261815 -0.648555646218)
(-0.00254101882139 -0.00381022010996 -1.23554116471)
(-0.00727891325656 -0.0123739665345 -1.23265474644)
(-0.00381171667072 -0.00254750511122 -1.23554328241)
(-0.0130381417768 -0.0130549707176 -1.22624916633)
(-0.00938069886231 -0.014052742619 -1.18377799467)
(-0.0123849067949 -0.00728611330278 -1.23264939689)
(-0.0140104201067 -0.0093864819973 -1.18370102887)
(0.0186655254986 0.0188186173253 -0.998384995866)
(-0.00309231180982 -0.00129224269077 -1.23542106857)
(-0.0185706453033 -0.00367876275646 -1.22231490153)
(-0.000696752543553 0.00164184486064 -1.10794341382)
(0.0650933237499 0.0233293408357 -0.721829838036)
(-0.000942373846235 -0.00537045749752 -1.06187929438)
(0.000983849104205 0.00119679673828 -1.07465402961)
(0.0010582804865 -0.00697928961551 -1.06231078704)
(-0.00127168462427 -0.00389302515636 -1.0604996959)
(0.000218853699044 -0.0041046079892 -1.06147554939)
(0.0014622938082 0.000352270114747 -1.07474096522)
(0.000426642540584 0.00331334072418 -1.07281096025)
(0.00179024590637 0.00380303354498 -1.07196434943)
(-0.0030503411052 -0.00464134175671 -1.06376655454)
(-0.00465166444387 -0.00297505270813 -1.06376020561)
(-0.00207719848341 -0.00206159203731 -1.06324706489)
(0.00104059376244 0.000380016646636 -1.07689801022)
(0.000376527202577 0.00105264956554 -1.07690008564)
(0.00273911584566 0.00274077278697 -1.07475094006)
(-0.000779970473737 -0.00216095258923 -1.06089419299)
(0.00127691526081 0.000789788924966 -1.0559623113)
(0.00284337368935 0.00373236331001 -1.04978998625)
(0.00139789239052 0.00231111277705 -1.07609966223)
(0.00335145387075 0.00400065846332 -1.0722426083)
(0.00451261850221 0.00668677443387 -1.06678120858)
(0.00722759217751 0.00950106974208 -1.05810432855)
(-0.00543649131937 -0.00055146973255 -1.06184404097)
(0.00117064569651 0.000971385863403 -1.07459779352)
(0.000752130589758 0.00128916129824 -1.05595137359)
(-0.00211568102756 -0.000634370915919 -1.06086815252)
(0.00367466722869 0.00289697359902 -1.04980591733)
(0.00230107103698 0.00140527045635 -1.07611484645)
(0.00667317667207 0.00451188979461 -1.06678716513)
(0.00398666600284 0.00337284316781 -1.07225263569)
(0.0094679284434 0.00725045878422 -1.05811610703)
(-0.00435452636693 -0.00118114224872 -1.06036359745)
(-0.00748732714283 0.00081206841822 -1.06213597882)
(-0.00462287178247 1.23212772828e-05 -1.06140636223)
(0.00325983035037 0.000402365213796 -1.07287615859)
(0.000409447217862 0.00152359590004 -1.0748714631)
(0.0038502115385 0.00180260065761 -1.07200187969)
(-0.00165210140412 0.000861696062076 -1.05667065682)
(-0.00677657525816 0.000186240696455 -1.06190564997)
(-0.00101118422974 0.000113791136129 -1.05560928859)
(0.00132143534153 0.000880856039403 -1.07485948866)
(0.00706181605365 0.00163056889514 -1.06693615303)
(0.00140914128234 0.000316311737777 -1.07497221955)
(0.00803080696135 0.000450370785209 -1.0652550693)
(0.00153538054514 0.00103855650672 -1.07633392754)
(0.00087022787188 0.00164759506727 -1.08720987603)
(0.00174202103947 0.000548325046118 -1.07574743971)
(0.000959473554744 0.00272353811031 -1.07500837199)
(0.00227737476455 0.00352079848108 -1.07408287456)
(0.00161270096856 0.000863824334955 -1.0858924738)
(0.000770459966401 0.0035066808848 -1.08640956537)
(0.00245386448446 0.00496356480626 -1.08362082655)
(0.000759155658246 0.000945930996754 -1.07868915811)
(0.000959372043988 0.000752339329426 -1.07869034103)
(0.00310763309239 0.00309830962668 -1.0768763908)
(0.000828879347001 0.00129343264637 -1.08942392842)
(0.0012928662702 0.000820760605056 -1.08942061521)
(0.00368789137968 0.00368749718573 -1.08700788011)
(0.00302761790109 0.00459648604859 -1.07496681731)
(0.00625651466554 0.00683738634323 -1.06944235878)
(0.00753430687849 0.010589145026 -1.06051796083)
(0.00158244956649 0.00395964591787 -1.08914009901)
(0.00346057901156 0.00584455765185 -1.08521520253)
(0.00767213124328 0.00756467694883 -1.07917323863)
(0.0106091310877 0.013435021825 -1.06711786127)
(0.000995283396556 0.00153669459166 -1.0763099759)
(0.00161785960263 0.000840844075581 -1.08718997038)
(0.00684685524399 0.00623285449648 -1.06944605695)
(0.00457015610847 0.0030025982824 -1.07497685774)
(0.0105774631926 0.0074921608414 -1.06053721466)
(0.00395889963098 0.00156507414633 -1.08914122135)
(0.00756269820628 0.007663158825 -1.07917819776)
(0.00582409903444 0.00343673478806 -1.08523326437)
(0.0134315045016 0.010594140151 -1.06712668427)
(0.00268009777286 0.000933601045559 -1.07494161527)
(0.000583455853987 0.0017620562065 -1.07566959151)
(0.00351584738211 0.00225865645877 -1.0740417126)
(0.00351262982136 0.000696713196658 -1.08642679442)
(0.000933105857036 0.00163306995422 -1.08589472108)
(0.00501380152632 0.00242119188957 -1.08363198563)
(0.0075904556949 0.00230215927978 -1.06896443363)
(0.002666989554 0.000383983393697 -1.07532719482)
(0.00878449472135 0.000673783446496 -1.06709797726)
(0.00264448863535 0.000556612702235 -1.08612283742)
(0.00909648313303 0.00230147411129 -1.07873796964)
(0.0030230724074 0.000498542698496 -1.08569551801)
(0.0107962171576 0.000836304256562 -1.07608161415)
(0.000714705368639 0.00122579471492 -1.0943583364)
(0.00161648246374 0.00135010985715 -1.10472349624)
(0.00100370420953 0.00134326106619 -1.09217633166)
(0.00217075369569 0.00109750825217 -1.09335874086)
(0.00320804579808 0.00508870648813 -1.09021985185)
(0.00148313573616 0.0015246681235 -1.10297702226)
(0.00150746399377 0.00400538135237 -1.10311697604)
(0.00295442464822 0.00626578830332 -1.10090706005)
(-3.52442137436e-06 0.00203495514157 -1.09579314783)
(0.00203293088813 -1.05719868131e-05 -1.09579205579)
(0.00364035892987 0.00364572148981 -1.09402760309)
(0.00107560358069 0.00138488943585 -1.10583286821)
(0.00139181114484 0.00107865233598 -1.10583407571)
(0.00420065756034 0.00419850820373 -1.10420288094)
(0.00248171333876 0.00661857124568 -1.09198176997)
(0.00969174843637 0.00573456107584 -1.08597664561)
(0.0117904698691 0.0142204088029 -1.07298226064)
(0.00199086099984 0.00427538987767 -1.10428609946)
(0.00446257503609 0.00665246600086 -1.10149864957)
(0.00927674944606 0.00951643241607 -1.09478447651)
(0.011118453795 0.0156383522056 -1.08286016886)
(0.00117200450583 0.000694970748176 -1.09436704313)
(0.00137841080758 0.00162800062211 -1.10476079914)
(0.00572618378762 0.00969361837365 -1.08598208462)
(0.00657124104779 0.00249595638461 -1.09199177952)
(0.0142116152146 0.0118013900457 -1.07300133375)
(0.00429012673115 0.00198844375485 -1.10427810444)
(0.00951423816614 0.00927200130516 -1.09479351739)
(0.00667215199576 0.00446640259722 -1.10150906624)
(0.0156459840824 0.0111183787073 -1.08289220955)
(0.00113344699738 0.00211047584951 -1.09336497486)
(0.00138842013546 0.000995885897946 -1.09211047096)
(0.00511900147898 0.0031734808382 -1.09018159712)
(0.00402562500927 0.00150908863708 -1.10314484476)
(0.00149098656686 0.00146820100782 -1.10297682883)
(0.00623893707412 0.00293860337365 -1.10093029312)
(0.00811988646542 0.00264246588529 -1.08496135518)
(0.00376339965513 0.000629312978436 -1.09138657933)
(0.0105255533748 0.00130553423664 -1.08220295232)
(0.00328378681435 0.000395061903853 -1.10214339344)
(0.0113900040611 0.00270016041567 -1.09482726785)
(0.00390848966825 0.000445802134322 -1.10202171743)
(0.0133132399755 0.00102791589756 -1.09235842813)
(0.00177712714288 0.00135804126296 -1.11456676818)
(0.00207404320509 0.00155685581349 -1.12594450887)
(0.00161057818808 0.00150939655031 -1.11262018146)
(0.00182796352068 0.00389862372272 -1.1132744295)
(0.00330875628958 0.00631259065385 -1.11038769762)
(0.00180251801884 0.00150541119409 -1.12396673634)
(0.00177308000715 0.00479220109379 -1.12449412662)
(0.00336384917724 0.00688428110351 -1.12154521861)
(0.00102911534074 0.00151953636079 -1.11585221982)
(0.00153427745016 0.00104302875674 -1.11586008773)
(0.00445198000328 0.00444374624409 -1.1138929486)
(0.00151918944758 0.00128839562777 -1.12734535887)
(0.00131794647613 0.00153738129343 -1.12734272012)
(0.00486082806166 0.00484189469304 -1.12526524382)
(0.00470491085413 0.0071644059376 -1.11123833959)
(0.010184329628 0.0100265986571 -1.10405216731)
(0.0122070270434 0.0169830566244 -1.08990204546)
(0.00245608941333 0.00474034238864 -1.12589401247)
(0.00535635760662 0.00762062966176 -1.1222641298)
(0.0106447702577 0.0115254185246 -1.1144989497)
(0.0129816628502 0.0187072660727 -1.09943802723)
(0.00139864660451 0.00179089934316 -1.11455107574)
(0.00155829511691 0.00208301427018 -1.12593929676)
(0.0100207274323 0.0101730476388 -1.1040646369)
(0.00718663966962 0.00470367839313 -1.11123376285)
(0.0169899032846 0.0121962344887 -1.08992526415)
(0.00475029715925 0.00246877476377 -1.12591177293)
(0.0115190276224 0.0106356313819 -1.11453337052)
(0.00762240802223 0.00535573649515 -1.1222674488)
(0.0187006205853 0.0129767875161 -1.09948729845)
(0.00391029938567 0.0018254068448 -1.1132720959)
(0.00144645363496 0.00154108609072 -1.11267339186)
(0.00627151359102 0.00327071223133 -1.11040402902)
(0.00478478965645 0.00177630274394 -1.12452573052)
(0.00148015294009 0.00182213615069 -1.12409355135)
(0.00693719239445 0.00339850047316 -1.12157504213)
(0.0118129221008 0.00296603197084 -1.10424177596)
(0.00417464224079 0.000553028782597 -1.11177363244)
(0.0139305569038 0.00119648413273 -1.10126571891)
(0.00378242877332 0.000544518579468 -1.1234173582)
(0.0133361954202 0.00318570334546 -1.11481357117)
(0.00443360186546 0.000525180788605 -1.12310265386)
(0.0155137916331 0.00115365513196 -1.11169619402)
(0.00224269496276 0.00165774697901 -1.13795667738)
(0.00237667546232 0.00177434932184 -1.15102269315)
(0.00196124466095 0.00156023527506 -1.13584731498)
(0.00189648513514 0.00513735327407 -1.13652227495)
(0.00361614953645 0.00733661104133 -1.13321693875)
(0.00208788745119 0.00167564633171 -1.14883606018)
(0.00191670976718 0.00562160501969 -1.14949237746)
(0.0037728755107 0.00791725186944 -1.14601101026)
(0.0017495523714 0.00139097811453 -1.1396447567)
(0.00139414334632 0.00173022929267 -1.1396273752)
(0.0052737438676 0.00526586180308 -1.13729570313)
(0.00202928705484 0.0014151908247 -1.15288092373)
(0.00141203935363 0.00202258137766 -1.15287493862)
(0.00568847929304 0.00569471468932 -1.15038851107)
(0.00579247899691 0.00818536237227 -1.13417884474)
(0.0114912335757 0.0125251196072 -1.12589765925)
(0.0140958698547 0.0203358129318 -1.10933024619)
(0.00296448194427 0.00536410611627 -1.15138848528)
(0.00619729999198 0.00868760868657 -1.1470674684)
(0.0122040711816 0.0135933439054 -1.13833432627)
(0.0151004535188 0.0219632427958 -1.12075307097)
(0.00164480456323 0.00223220935555 -1.1379503024)
(0.00176087084568 0.00237226566859 -1.15104097601)
(0.0125197424483 0.0114706325539 -1.12591577726)
(0.00817041761156 0.00577906474793 -1.13417038687)
(0.0203207793192 0.0140774124184 -1.10936441397)
(0.00537145350046 0.00296946436377 -1.15135761746)
(0.0135938365281 0.0122086827051 -1.1383192594)
(0.0086776923371 0.00620027454193 -1.14703778767)
(0.0219589620251 0.0151026725675 -1.12075408433)
(0.00515643748257 0.00189284489553 -1.13657686203)
(0.00159615213842 0.00197794970598 -1.13602657505)
(0.00748351571842 0.00366276871714 -1.13325514665)
(0.00565654960064 0.00192834368061 -1.14959250464)
(0.00172544725458 0.00211783709437 -1.1490745973)
(0.00810588053848 0.00385174232178 -1.1460869579)
(0.0144276177722 0.00344538709869 -1.12607871419)
(0.00474921705583 0.000573020831998 -1.13498816096)
(0.0167430773904 0.00124033163331 -1.12263538099)
(0.00438844759179 0.000695481970164 -1.14842996998)
(0.0156101325243 0.00366945638503 -1.13847631228)
(0.00500924173014 0.000556893275059 -1.14804959206)
(0.0180167985312 0.0012718242635 -1.13485972949)
(0.00247246489803 0.00191088457357 -1.16481818357)
(0.00248384672889 0.00199595369592 -1.17936624095)
(0.00215148878959 0.00180240575072 -1.1625698068)
(0.00197015897208 0.00598592027237 -1.16324080725)
(0.00393117374703 0.00844574400579 -1.15954866793)
(0.00210197123169 0.00192677912998 -1.17711057462)
(0.00195442638807 0.00626008788489 -1.17772360144)
(0.00398041096755 0.00887020799495 -1.17392509863)
(0.00217189134975 0.00145221188468 -1.16689717807)
(0.00147326284875 0.0021888639854 -1.16686026851)
(0.00604032395723 0.00602289354059 -1.16424654007)
(0.00229305321805 0.00151577585674 -1.18156586018)
(0.00146596828588 0.00227017605735 -1.18151874349)
(0.00622531065396 0.00626199452602 -1.17885715329)
(0.00652406530011 0.00920174363135 -1.16074211383)
(0.012911373673 0.0144468083376 -1.15172099814)
(0.0160980819172 0.0234259783748 -1.13320931584)
(0.00324457483446 0.00579575948842 -1.17995323706)
(0.00669144969149 0.00951207125978 -1.17522061241)
(0.0133026122865 0.0150168990809 -1.16616934912)
(0.0167776623581 0.0244933651445 -1.14709435533)
(0.001929101123 0.00247777312857 -1.16488288596)
(0.00206465550865 0.00251657163208 -1.17942790146)
(0.0144545223022 0.0129032300329 -1.15169495469)
(0.00921417647205 0.00653093657895 -1.16069714142)
(0.0234353348793 0.0160899902593 -1.13318070148)
(0.00579010788901 0.00322860910991 -1.17987348099)
(0.0150085007489 0.0133150110695 -1.16612452336)
(0.00957651350696 0.00670042796597 -1.17515452084)
(0.024500528497 0.0167855604005 -1.14704250179)
(0.00606278971851 0.00199925108461 -1.16337152667)
(0.00186462448563 0.00216530471434 -1.16286410382)
(0.00867606940899 0.00401134722234 -1.15965280262)
(0.00633350960675 0.00202365198649 -1.17788139547)
(0.00199389984289 0.00216341289094 -1.1774400714)
(0.0091006202518 0.004082561665 -1.17403881522)
(0.0165934609583 0.00382170077164 -1.15169675418)
(0.00539351420323 0.000614581951169 -1.16178005741)
(0.0191535551506 0.0013422357332 -1.14791902896)
(0.00487983364839 0.000672224920279 -1.17670245036)
(0.0172940378416 0.00391759371734 -1.16586117434)
(0.00550872824745 0.000575408454065 -1.17624383778)
(0.0198632799678 0.00133978524924 -1.16197835886)
(0.00242138260664 0.00206115301233 -1.1941503717)
(0.00217305004515 0.00206210716107 -1.2088101184)
(0.00194309355676 0.00199802215087 -1.19198476553)
(0.00188027950063 0.00633510176924 -1.19248739048)
(0.00388762467426 0.00904123242267 -1.18867865375)
(0.00167259332089 0.0020272856568 -1.20676779239)
(0.00168594030286 0.00607614636608 -1.20718983206)
(0.00358406836223 0.00880254159451 -1.20344607601)
(0.00228805827216 0.00148668206619 -1.19633893803)
(0.00147641932139 0.00226736865385 -1.19630488439)
(0.0062026950526 0.00620836663991 -1.19365903406)
(0.00212818454721 0.00139299841482 -1.21085824959)
(0.00141681895745 0.00212097704925 -1.2108256796)
(0.00585207625724 0.00582324453057 -1.20828683561)
(0.00670262334593 0.00960003595933 -1.18998105223)
(0.0133131804614 0.015052766463 -1.18116983133)
(0.0170969128808 0.0248813682684 -1.16183890593)
(0.00304802737895 0.00545903203947 -1.20937440932)
(0.00630442748414 0.00923378220668 -1.20474189576)
(0.0126513396136 0.0143798355367 -1.1965024393)
(0.016606569813 0.0241918638258 -1.17762678937)
(0.00209451579772 0.00243133615588 -1.19421490685)
(0.00207825452867 0.00218073480969 -1.20882316806)
(0.01504401264 0.0133059772867 -1.18116796415)
(0.00960433332934 0.00665981435446 -1.18996792639)
(0.0248619814447 0.0170599296472 -1.16189206597)
(0.00544199705229 0.00303221717018 -1.20933846226)
(0.0143686154674 0.0126257823369 -1.19649550399)
(0.00921934595265 0.00627451172344 -1.20471583266)
(0.0241631741863 0.0165701214942 -1.17761804906)
(0.00639731487012 0.0019408747787 -1.19267213517)
(0.00210908242755 0.00203518476942 -1.19226930087)
(0.00924070238485 0.00396574622982 -1.18880894997)
(0.00613467762707 0.00173872408798 -1.20729363466)
(0.00203415706041 0.00167945090491 -1.20691867532)
(0.00886061346629 0.0036077392871 -1.20353638573)
(0.0173696626145 0.00382339230394 -1.18072012166)
(0.00555638267547 0.00051820058113 -1.19111360208)
(0.0199978245604 0.0013156020818 -1.17679578278)
(0.00464248772661 0.000399382757603 -1.20618808978)
(0.0165444103666 0.00350329687734 -1.19585669789)
(0.00529324010738 0.000441918216627 -1.20580000623)
(0.0190738508317 0.00122333439393 -1.1920453673)
(0.00175354412467 0.00190980078188 -1.22217014466)
(0.00102259103918 0.00150341369077 -1.2333249769)
(0.00120517889277 0.00188681877633 -1.22031605543)
(0.00136960296357 0.00535801225265 -1.22064469678)
(0.0029768934294 0.00786857052311 -1.21719528841)
(0.000425476883694 0.00146772224025 -1.23179015186)
(0.000724578277825 0.00390586758902 -1.23198114182)
(0.00185421063596 0.00592445422295 -1.22893419181)
(0.00180256306259 0.00122610295043 -1.22395198053)
(0.0012285935107 0.00180218379206 -1.22393942414)
(0.0050360640404 0.00503969753774 -1.22167537102)
(0.0012266986088 0.000868566331217 -1.23477510758)
(0.000882125931309 0.00121063704307 -1.23477734099)
(0.00358153916825 0.00356476849406 -1.23283243195)
(0.00544434284988 0.00815161201685 -1.21843347717)
(0.0109951071171 0.0125743305068 -1.21125033771)
(0.0149460486514 0.0216916757914 -1.19369001032)
(0.00173966551015 0.00328696434664 -1.23369272519)
(0.00384776644902 0.00610556991928 -1.22996554058)
(0.00805032801826 0.00927429942203 -1.22418121451)
(0.011667113058 0.0168447043697 -1.20882627305)
(0.00190945911545 0.00170980560664 -1.22218969087)
(0.00149843689617 0.00100840841877 -1.2333455579)
(0.0125894832374 0.0110278082872 -1.21121888273)
(0.0081591709409 0.00542655844001 -1.21841397909)
(0.021739144384 0.014960011318 -1.19361736139)
(0.00329522220882 0.00172873621251 -1.23369672397)
(0.0092893073155 0.00803706230726 -1.22419164677)
(0.006100060795 0.00382745498935 -1.22997631745)
(0.0168748032981 0.0116439426307 -1.20883799925)
(0.0053762918059 0.00135712700666 -1.22069618962)
(0.00186982443483 0.00116711054884 -1.22039661011)
(0.00786895923154 0.00296598338126 -1.21725865956)
(0.00388717593391 0.000716851045036 -1.23198996597)
(0.00146086746339 0.000434934152869 -1.23179489081)
(0.00590051732343 0.00185625968022 -1.22894726866)
(0.0145424449364 0.00291543302656 -1.21036845356)
(0.00459490237984 0.000308118658821 -1.21934117633)
(0.0167426247383 0.00102604884374 -1.2068843586)
(0.00292569457715 -0.000138759658286 -1.23112861041)
(0.0108003422938 0.00194518755967 -1.22320312563)
(0.0032464985715 0.000124356850487 -1.23082762153)
(0.012421011532 0.000695830609871 -1.22018446976)
(8.97003020092e-05 0.000866696842087 -1.23968892569)
(-0.00106898921703 9.94073008025e-05 -1.2412035129)
(-0.000411961671247 0.000847179085931 -1.23872998647)
(-8.05291099101e-05 0.0018246740168 -1.23883856287)
(0.000435341251008 0.00304630445514 -1.23679868266)
(-0.00140747695301 7.47619188901e-05 -1.24069316656)
(-0.00098932824544 -0.000449186971508 -1.24058810821)
(-0.00133503959927 -0.000684944057634 -1.23934533827)
(0.00047205422143 0.00039842893172 -1.24060935364)
(0.000404440438093 0.000465213527033 -1.24061038889)
(0.00161089400972 0.00160511718109 -1.23953681538)
(-0.00046011784846 -0.000167295979352 -1.24178335588)
(-0.000156156227783 -0.000474195901789 -1.24178517367)
(-0.00100619343665 -0.00102049118228 -1.24115975273)
(0.00160067249332 0.00305584544813 -1.2376651846)
(0.00380031176105 0.00450428586464 -1.23362335885)
(0.00649961226323 0.00929955473438 -1.22137989393)
(-0.000697169331872 -0.000715092961715 -1.24147174705)
(-0.00136172503845 -0.00100468590734 -1.23987935803)
(-0.00182878198214 -0.00192303393213 -1.23753950042)
(-0.0007306200025 -0.00126128294755 -1.22880959019)
(0.000872732783429 7.95778172525e-05 -1.23969704898)
(0.000110554132461 -0.00107886757363 -1.24120445778)
(0.00450907720727 0.00379369550034 -1.23362913007)
(0.00305800153619 0.00158857402099 -1.23767185721)
(0.00931534299188 0.0064839464568 -1.2213876737)
(-0.000708501866148 -0.000711227870664 -1.24147504809)
(-0.00190755397825 -0.00185463302989 -1.23754096973)
(-0.00100001970459 -0.00137880504186 -1.23988324323)
(-0.0012547434901 -0.00077032398491 -1.22880963071)
(0.00182114794358 -8.30080739562e-05 -1.23884409099)
(0.000843176699943 -0.000420882739208 -1.23873428925)
(0.00303943443457 0.000431169149377 -1.23680283858)
(-0.000451478745533 -0.000988349813368 -1.24058924845)
(7.4737861381e-05 -0.0014083433605 -1.24069404188)
(-0.000689776640767 -0.00133068545984 -1.2393435892)
(0.00528241964661 0.000612715395942 -1.23276953704)
(0.00138274800746 -9.64188634748e-05 -1.23801702348)
(0.00604963811605 0.000242712749401 -1.23041404193)
(-0.000460756020569 -0.000857413525462 -1.24020175009)
(-0.00205258133202 -0.00112867158946 -1.23692464675)
(-0.000633638494461 -0.000331214864575 -1.24010304383)
(-0.00243589460747 -0.000349775205422 -1.2353547588)
(-0.00260051657516 -0.00092448638894 -1.23559086487)
(-0.00265067053735 -0.000970225512577 -1.23570685732)
(-0.00227451418166 -0.00391823349651 -1.23539964255)
(-0.00347155230454 -0.00544701478696 -1.23470874835)
(-0.00171096456495 -0.000903977573747 -1.23553190228)
(-0.000900638208526 -0.00171538394939 -1.23553355516)
(-0.00416163551078 -0.00416805972104 -1.23522936767)
(-0.00488407557942 -0.00594466832711 -1.23473448181)
(-0.00888537687307 -0.00982038820445 -1.23383818774)
(-0.00998297733129 -0.0145622373573 -1.22869088677)
(-0.000934424890596 -0.00261186685487 -1.23558691311)
(-0.00980868772719 -0.00889308754774 -1.23383309173)
(-0.00595090094455 -0.00489413865971 -1.23473557621)
(-0.0145564006266 -0.00999653949291 -1.22867411961)
(-0.0039250245851 -0.00227879439423 -1.23539521806)
(-0.000968237043561 -0.00265019866668 -1.23570540404)
(-0.00544668169598 -0.00346745921802 -1.23470051884)
(-0.0109666027246 -0.00318992015387 -1.23379595043)
(-0.00373599571302 -0.000686785112213 -1.23539590731)
(-0.0127798021517 -0.00110361532928 -1.23277076311)
(0.00533464666233 0.0206913070665 -1.07268894786)
(0.0137570644691 0.0169047538488 -1.05783563885)
(0.0116620240193 0.0249334342101 -1.04245320674)
(0.00684240872428 0.0134846109938 -1.08869381228)
(0.00627839233945 0.0194359219834 -1.07939834071)
(0.0119806229448 0.0207035545738 -1.06541377248)
(0.0108901140678 0.0264011602355 -1.05011915327)
(0.0137488042471 0.0232944463795 -1.04716452652)
(0.0232851260186 0.0137638243191 -1.04717581463)
(0.0239267670702 0.0239443574033 -1.01708463325)
(0.014491794596 0.0144919185494 -1.07302322075)
(0.0169216354012 0.0217555921553 -1.05251908658)
(0.0217567851056 0.016926422055 -1.05252721088)
(0.0242701326585 0.0242806365015 -1.02298044354)
(0.0135970737852 0.0327979502358 -1.00012963228)
(0.0232763790456 0.0263305326258 -0.983509419882)
(0.02050257466 0.0342364633342 -0.954077734084)
(0.0169903473934 0.0270946288726 -1.02163295084)
(0.0150808573139 0.0333546307362 -0.999445538471)
(0.0235955626985 0.0298313300711 -0.983698692987)
(0.0203792253367 0.0355899313409 -0.955459909772)
(0.0168797690999 0.0137749802096 -1.05785478504)
(0.0207206898949 0.00529094104716 -1.07270964415)
(0.0249615244168 0.011654866777 -1.04252015869)
(0.0134936878485 0.00683866426148 -1.08874343004)
(0.0206992169382 0.0119927934484 -1.06547191811)
(0.0194122256512 0.00624294428233 -1.07947564931)
(0.0263877288887 0.0108651629365 -1.05026575301)
(0.0263066745086 0.0232932524531 -0.983505920289)
(0.0327684302512 0.0135804154384 -1.00016300553)
(0.0342036614636 0.0205138701568 -0.954087768372)
(0.0270852757949 0.0170004332575 -1.02164892734)
(0.0298193422744 0.0236131561388 -0.983707525198)
(0.033331735409 0.0150727824548 -0.999527672865)
(0.0355680750712 0.0203909875507 -0.955496568597)
(0.0226510089951 0.031577280141 -0.907302717303)
(0.0315203501903 0.0226518535486 -0.907306184557)
(0.0276069096088 0.0276419984147 -0.867069697207)
(0.0285613861299 0.0285805338732 -0.932633340283)
(0.0244378902703 0.0337662670131 -0.897612343964)
(0.0337340264015 0.0244564201065 -0.897615979399)
(0.028350106922 0.0283952475753 -0.858643834883)
(0.0266840559391 0.00712721808927 -1.02800842026)
(0.0258225978149 0.00214041876159 -1.05823046495)
(0.0299268404637 0.0037236462779 -1.0202349834)
(0.022750803408 0.00408063961005 -1.06771973759)
(0.0302894589203 0.00714280725594 -1.03379501014)