/*--------------------------------*- C++ -*----------------------------------*\
| =========                 |                                                 |
| \\      /  F ield         | OpenFOAM: The Open Source CFD Toolbox           |
|  \\    /   O peration     | Version:  2.3.0                                 |
|   \\  /    A nd           | Web:      www.OpenFOAM.org                      |
|    \\/     M anipulation  |                                                 |
\*---------------------------------------------------------------------------*/
FoamFile
{
    version     2.0;
    format      ascii;
    class       volScalarField;
    location    "30/fluid";
    object      wallHeatFlux;
}
// * * * * * * * * * * * * * * * * * * * * * * * * * * * * * * * * * * * * * //

dimensions      [1 0 -3 0 0 0 0];

internalField   uniform 0;

boundaryField
{
    outlet
    {
        type            calculated;
        value           uniform 0;
    }
    inlet
    {
        type            calculated;
        value           nonuniform List<scalar> 
160
(
0.00270004909643
0.00190851717141
4.88347889758e-05
-0.000209829953014
0.00191030545979
-0.000239067548185
-0.000851294836144
-0.00123414780265
2.10372302336e-05
-0.000858466224986
-0.00165516108557
-0.00220851521545
0.00209620135414
0.00205958950807
0.00187104782479
0.00241607246871
0.00165925987182
0.00169670237199
0.00304376421808
0.0020001677809
0.00170674046176
0.00199420945035
0.00120707043948
0.000772388664297
0.00160280617013
0.00204386132001
0.00158133069139
0.000763459267479
0.0012064917363
0.00232689832936
0.00178960712578
0.00192855559543
0.00271785363691
-0.000212149391137
-0.00123565654826
-0.00220820687938
-0.0029375690997
0.00307360671194
0.00169815472929
0.00164767423445
0.0030108658304
-0.000206261173338
-0.00123496263926
-0.0022091147098
-0.00293838933456
0.00283419475849
0.00173655413941
0.00168035245234
0.00253111533276
7.57304000014e-05
-0.000846862176527
-0.00165528163895
-0.0022075874868
0.00173900552583
-0.000219812700131
-0.000848882089423
-0.00123038830131
0.00220889524549
0.0012908927955
5.89050232028e-05
-0.000201272737916
0.0020761438903
0.00170378722014
0.00212008237444
0.00195692467546
0.00222614057033
0.00212327448106
0.00131973123722
0.000848232150778
0.0020841202171
0.00183536479348
0.00199551531958
0.00164136623391
0.000811156882331
0.00212797266022
0.00245800284802
0.00189858461587
0.00278916190936
0.00311802428579
0.00172798258949
0.00314956379153
0.00260806103534
-0.000190460072846
8.59054134686e-05
0.00174672282426
0.00220776154979
-0.00123000243781
-0.000845502106597
-0.000219790105518
0.00128918597116
-0.00220850536442
-0.00165530047503
-0.000848824646813
5.63776818359e-05
0.00206424140119
0.00175101593009
0.00181276367885
0.00297422719007
0.00200742478567
0.00214662323889
0.00224225568736
0.00085172693982
0.00131988597802
0.0021242065951
0.0018337985863
0.0020825781831
0.000811129703592
0.00163793470016
0.00199380693461
0.00212100621634
0.00187322569252
0.00241909708383
-0.00293753478082
-0.00220751607968
-0.00123199443207
-0.000205468811435
0.00166304116116
0.00170795169322
0.0030584386879
0.00270602734895
-0.00293738824595
-0.00220667591301
-0.00122541868893
-0.000181948440167
0.00177600696575
0.00186076465349
0.00303452702162
0.00318487567039
-0.00220675420348
-0.00165285433956
-0.000834567699061
0.000119527926918
0.00210172987407
-0.00123064416661
-0.00084213928326
-0.000202115757194
0.000890543476579
0.00230007932198
-0.000199655980927
8.67070891938e-05
0.000880379176174
0.00194534385114
0.00169846724274
0.00196946422252
0.00225410692227
0.0022693166323
0.0027268590615
0.00139181402713
0.00219278229812
0.00178911116006
0.00176705032172
0.00218599853524
0.00138857506992
0.00227573023562
0.00227762257006
0.00303821514485
0.00285137013168
0.00174925243799
0.00254500757134
0.00213617329706
)
;
    }
    tubeWall
    {
        type            calculated;
        value           uniform 0;
    }
    fluid_to_bedOfSpheres
    {
        type            calculated;
        value           nonuniform List<scalar> 
2688
(
35329.2559784
42122.3961036
40115.7614043
43092.4997688
41438.8452328
40358.2970755
42561.9860193
44632.0686474
40786.990407
43218.3773344
40786.6812862
43811.8773308
36108.9088747
36794.0559012
35292.3843397
36180.7563035
37061.3937752
42737.2351191
40500.2992249
37521.367858
37853.773549
41633.3843539
41604.7038313
39166.9418425
40061.6591723
41428.2880804
40303.900108
37350.4937711
40599.33258
38537.4681904
37236.5524329
38894.3528181
38553.0039746
35276.8059469
35555.2560703
38145.2473846
39763.0302902
38655.0442389
40363.9123462
41096.4184965
40047.3527224
42297.6833417
45309.0409563
42156.3801747
46622.4587491
40961.8430509
44651.4820939
42343.6711314
45893.5225703
45882.7732503
43670.6758916
45515.6116572
46967.4339701
42007.7710249
41784.4716325
43321.7588663
45997.3095176
46655.5614775
41105.8559501
44406.1026159
45710.6530365
43325.9156564
48821.9319419
46501.5616216
43760.8287973
47094.2216512
49522.095384
45970.4105184
46614.7503675
45771.6887288
46261.1215886
46497.5309266
33660.0038535
34276.3235664
33650.0457074
33976.2902881
32462.6707464
32245.9067577
34978.7900743
33679.6755895
35168.9543789
34161.1721601
34290.8832343
34701.970456
35690.6109117
35190.5524912
35476.6613188
27726.7955178
34918.522397
33849.536979
35674.2431316
34055.212383
31081.9338095
34310.004828
29005.2804399
31162.5297536
33923.371752
28780.7113211
29247.4546822
29232.6839039
28354.1388792
28970.7618683
27214.4553751
36566.131505
36715.7502514
40888.1544713
40776.8304325
39646.140497
41524.9824331
36856.7342134
40804.0408892
36847.3772043
36907.7998702
36894.3889224
41035.3937086
41970.121964
40588.4118253
42992.7368106
43579.268881
36482.7071156
37145.7921644
36288.7853045
36311.3982239
36919.696796
37403.6235922
37787.8697256
37766.6641388
34833.9108212
37910.548092
38535.7760882
33604.3868646
34233.979783
33910.5601522
34129.5209807
32136.9011073
30925.1028908
31724.5474298
32652.5099001
30885.7258571
31909.1859473
30685.3342256
31810.8759725
32224.2058646
30979.5886701
36102.3622942
37005.7529578
35887.9560154
34997.0080724
37139.4012699
35491.218158
36408.4998858
33322.8026328
35962.3356799
36068.2726473
36664.5368728
33179.8917771
34606.1361115
39967.8347334
40756.839553
40749.684803
38363.4947715
38605.3525216
38130.5245207
37769.2314267
33732.4091122
34556.0090671
33637.0687803
34710.3194149
27917.5134214
27970.6839303
27973.7063005
28874.7476035
29653.2515373
28970.0938569
29562.2634247
30177.6326838
31998.4974954
31748.9043172
32505.6213866
32341.5951468
34268.7565719
32809.4078446
34167.026002
33023.2473634
33710.3582873
32669.8550492
33244.0970292
32577.2374894
32848.7469319
33408.544261
33219.1024201
29370.9648964
29016.2888099
30535.103308
31544.1913238
29905.1957592
30563.3160997
31752.7463777
31304.3123698
33090.5443379
32049.9837685
32168.5201247
32698.3006696
30981.4243023
31203.6328801
31555.6880128
29195.655449
30528.2163045
30463.2214248
29557.4451353
32288.872613
31606.9217639
29834.4236711
30462.365276
31941.858128
30841.4648711
32600.1111837
32205.3994707
32090.3991472
31737.4291885
30988.0755335
31705.1095274
31677.2237444
29251.0913825
30476.9237832
27415.2754768
28663.8241626
28811.6946449
28363.5188816
28874.1425344
29787.6832653
28130.2702999
30079.0786768
28362.3988034
42181.6592448
40066.7180831
42529.7704383
40157.6364349
37733.3531454
37633.4914541
38930.2058091
38930.3652521
41583.9008781
43822.1164934
39820.8122867
41136.09345
38946.0853431
40214.591524
43733.1880148
41716.6536156
39975.3110648
36899.4796232
41112.0415588
37891.4366791
39977.5344854
38727.5699211
37386.1036288
38192.2215434
38537.272082
35150.269393
35817.3872041
37656.6032576
40395.8195519
41467.6218679
39942.2968676
36055.758189
37642.8288788
40640.5557167
41315.3262084
40110.3159148
42850.7838343
38899.3799619
43837.9334212
43179.8587777
44123.0987983
44099.3116669
45603.1444263
46668.3634158
42140.8066819
44421.5566332
41225.5683714
42631.0307348
45212.6909612
42811.0252758
46174.1603238
45326.0082382
42369.2631237
44183.9587161
45368.1574926
46296.3830677
43586.7327799
42698.1256216
42445.616151
43453.4990406
46185.899297
46286.91371
41681.5767547
45030.5326136
48759.1625584
46098.3812287
48543.3998637
44774.5391754
45920.3094531
45769.5342011
46488.590476
45888.1939674
44679.2470829
43429.0265265
46827.8886412
46228.6100803
45982.5099693
45987.0574713
47517.0632265
33646.1337264
34229.3189116
32305.7731139
33543.3975248
32280.8927278
34085.176442
35022.1855712
35209.063397
36493.1381231
36422.5808184
39674.9469387
41273.965773
40443.8559654
34864.3112645
35295.4353283
27738.9888339
31854.4658249
35261.2140914
34137.3388719
29096.6926145
34037.077408
34531.9484987
34784.4698028
33700.3433743
33773.5416012
28652.596316
29130.9195998
28342.7840132
29246.8139125
27763.657509
31620.0886881
35009.398866
34554.6994317
28937.0671802
35282.5538453
41888.4039489
36648.8453831
37251.306964
40821.3687665
34678.996052
36865.2245537
41088.0161957
41895.6733873
36608.9212138
41749.4352399
40682.3927158
43191.6451615
41178.5877134
44735.268296
42418.036822
33730.4098522
34461.5453325
31863.4581033
30764.2450785
31725.8525799
32541.8934342
30999.4684374
32043.6024631
31197.8162741
31599.22126
32044.7287881
33586.7598269
30855.783466
34511.1886464
36402.3374025
37003.6418532
36314.4343893
35019.4369241
37196.7257868
36515.9024324
36802.3585975
36560.9084889
36787.7225359
36615.3745535
36925.324256
38007.514535
37961.3390168
37722.6585837
35335.6557806
37756.1006875
37212.2430216
37357.2557015
37004.6811159
38018.2640642
35636.6441388
40780.2007853
43233.9058248
39467.739903
38395.0720831
33885.6174014
34593.4447049
27959.8071024
28011.1253619
27993.799455
28790.3686401
29707.3387386
28926.8345431
29565.7888958
30133.5208204
29469.8044082
31123.4879995
31882.1693609
32398.5667096
29874.6486745
30640.4491419
31331.5964397
30682.9213996
32770.8745458
33009.7630985
32087.1873186
32566.0266626
31268.784161
31550.7447315
31021.1715059
29147.493997
30165.0556395
30118.1243384
31851.1916928
32172.0763807
32249.9410473
35785.7552661
32764.3403218
34069.9357623
32775.7373029
33886.4535152
33146.0999527
35764.2768313
32970.5674739
33435.7370217
32423.7027221
33396.1516608
32251.4678591
33550.0767922
32914.4076473
32894.5862122
26933.6513691
28073.5272037
28014.5198922
29499.7655083
29405.0060111
30037.517882
28349.3898212
29766.2789033
28313.8049249
30323.0066955
29373.0613679
30614.1257028
31753.6353617
29993.8294151
30713.8246568
31377.0162843
30812.0709771
32408.3344273
33011.4479117
32488.9515805
32600.2536676
34293.0265051
30755.180061
31287.3474189
31335.9416892
29121.8838552
30523.4347187
34457.4138479
39233.3876288
44226.0521275
40705.3976672
43141.318193
36217.7155312
41323.5223259
37647.1843252
39901.4187711
38825.1944588
36964.1853403
37611.1995542
38273.614075
35266.8799988
35335.712118
37832.9866205
40726.2256575
41678.5671901
39606.4742135
39833.9647322
42093.9407616
40973.8719306
36414.0499536
37071.3919348
38099.7383808
39314.1131716
38270.3373341
36078.240108
41043.9177861
40122.4355629
40670.351672
42839.8254368
39083.2359756
37750.2147002
40870.9604463
40411.907765
38739.0121234
39633.0184146
38853.3994266
38000.7684906
45848.9558819
46996.8819317
42846.5764128
43160.0266676
41605.0801823
43033.5320929
45884.771977
46802.6662237
41311.9288229
44388.4034778
44353.8544145
41275.7285335
42013.5564161
45393.9761911
42481.7976162
46040.3024196
43363.0213384
43331.7276067
45867.4856181
45952.4543397
43822.6042913
44263.5764968
44150.3343952
44202.1877301
44274.3968399
46554.3651389
46198.8320767
46086.431941
44486.049157
48493.8576783
45726.0817957
45806.0581911
49499.9388492
47826.1175506
43548.2489723
45859.3159572
46085.8538463
45818.1356557
46011.519901
35100.9313585
42924.9046288
42782.6680053
43235.4541736
41466.6466178
40711.0461182
42784.6182276
39928.568266
42302.733779
42188.1727126
40177.5244006
42852.155671
36291.8623897
37021.8650763
35102.2439164
36441.922982
37298.0712341
39590.4419042
40238.9281659
38440.059178
41139.8528018
41338.2617758
39026.4440994
40215.7369631
41579.1028787
39227.7330049
36631.6355789
40800.1454587
38267.2587046
39449.179368
37614.1123615
38862.2956347
34888.3093176
35831.0277273
37624.5720148
39826.7997907
38438.9898535
40398.9640393
41098.9663631
39630.0790742
44684.3302328
40958.4173121
45505.3946858
42561.6801132
46255.8156033
45748.3906657
41444.0044014
45666.7176017
46128.9326742
43664.0847249
41864.6262642
42154.2296758
43182.5577229
46861.734558
46872.9559623
41822.424219
45439.3014932
46101.8504763
46898.1177249
45966.2400024
45749.1461697
45699.7335641
43925.3614023
45692.2802342
48007.9246439
46029.9396371
44655.104409
47257.6173274
46459.9630099
46298.351052
48522.3942098
35186.2012329
41427.0415501
40192.0580264
40500.4753708
41626.9127545
42583.5611774
41604.0494231
41389.0221619
41375.9525921
44229.3590955
42257.0901321
41119.7533653
45303.1510831
42058.2416896
36544.0953807
37159.2011257
36054.9415468
35312.6607014
37072.3262912
43815.9801291
41451.8548686
42932.866623
37850.5608596
41241.6528376
38534.3399038
39550.0060918
38710.174872
37259.9233321
37300.2994325
38117.3212857
35375.3544474
35450.4801756
37266.4365496
40631.138146
40815.7547216
39954.939959
39677.836856
39954.4985525
37518.9622843
38997.5095088
40017.6356071
38859.4036544
45498.3789999
47051.8502524
43438.3055858
42763.2306158
41737.1312828
43956.6234862
44673.8547302
47221.7134157
41025.8407076
44034.7135566
44481.5852869
40606.9774154
46004.0142124
42869.6889635
46344.0667637
45932.9280074
45445.9416511
43742.014561
46782.6017299
43244.8101049
46750.4047162
44691.562886
48005.3851076
45801.9794929
46375.9751239
46535.7004246
45691.4743103
46247.6451304
45876.667831
49759.3304429
33488.6248443
34296.2395861
32428.3807498
33644.7405736
32467.2947087
34324.7075183
35268.9017491
42241.7041709
34968.8788853
36412.006855
36338.0096407
41804.4412038
41510.6533294
35205.1175201
35165.1361685
27736.2478894
31301.3818186
35033.286147
34098.3259294
28767.229725
29465.5566766
29130.4123187
27230.0514497
28627.4896262
27747.9982091
34109.9913925
34419.5172294
35423.9679185
33772.6351308
34124.2296057
31629.2348759
34558.4090636
34150.8352585
29329.4175724
35675.4616937
36341.285887
36717.0460156
34877.4253745
36731.7616496
40682.3134235
40848.0222915
40570.3581354
39909.4347197
41500.1019273
36846.0654806
40275.7851059
42304.0265774
44131.8659276
42192.0129149
42044.9462017
40888.4251549
44015.5517262
33559.0954021
34416.2087337
32056.8177515
31048.1820646
31797.4970498
32124.9844126
30946.9390134
31788.1327503
30799.9332845
31774.9037426
32393.007737
33612.850762
30987.304438
34475.0730117
36029.4042436
36838.7013774
37195.180099
36785.5079517
36056.3493789
36661.2731011
37858.9467738
37840.9444367
37962.8286784
34648.6835332
37956.405453
36095.6702412
36918.6389417
35003.4233506
36321.5974102
36986.2796415
40028.2300712
43236.006462
40539.3650191
36898.8175993
37441.6068072
37146.4149841
38318.2277608
35873.1118124
38854.8355224
41444.5071752
42191.9869583
43185.0526986
39535.1667437
38003.5291982
37148.9096077
39220.3971758
40346.7356438
34073.4381209
34527.2402789
27935.5191629
27888.0290038
28063.7006995
29089.1757269
29923.2858972
29022.7571435
30253.2527867
30206.3341501
29153.0212639
32346.3026184
31008.7160922
31246.3803375
30195.2160973
30235.2838697
31534.912153
30798.5901712
32666.9994077
32488.7004453
32552.2481356
31939.3334904
30963.5302055
31808.4969096
31323.7095567
29315.1255858
30272.5391266
26593.4658625
28728.0926946
27855.7876296
29643.149518
28747.2966506
30084.1232968
28284.5532999
29210.8946208
27605.0644434
29917.3155284
31141.806065
32464.9328779
32491.3518404
35914.4037068
32652.5938366
34410.2763808
32698.869178
33619.8656027
33365.2435402
35677.4751726
32734.9694094
34208.882385
32985.5197599
33883.6775916
33544.2516156
32818.185565
32997.8511989
32277.3501037
30542.6300776
29057.80504
31677.1458644
31675.005436
30439.1851822
30203.8494989
31610.9478482
30857.8961347
33574.0392874
32931.4550191
32263.651401
32044.8610823
33573.7357653
31219.0724774
31762.1756761
31417.1487219
29308.0326579
30349.1252611
34895.7580146
36955.4171444
37257.0278679
38021.7506866
35738.6214407
41091.6296554
42128.9767344
40596.080365
39329.9211136
38255.8932758
38927.4411652
38016.4700151
40095.420096
43377.0561142
41061.5584638
37088.1896341
41434.9510271
38486.1015927
38428.3720246
36765.6006538
38418.3959364
34809.6892923
35475.9470718
38065.6752542
39390.0374592
38654.6720306
40424.6314757
41456.6735631
40206.6462784
43581.9237893
43348.0279849
44368.8813143
43217.6388795
44138.4364427
43152.2163703
40608.7329104
42302.394298
45671.8895634
42754.8664093
46055.1898604
41130.9607259
44394.0675877
45468.1688441
45590.3749315
43449.4232991
43033.9889123
41670.6340425
43115.6811492
45462.8764934
45663.0446666
41242.0813177
45433.6390358
45465.7256618
46544.8113747
46386.0367011
45917.312737
45969.8348092
43321.5390151
47081.2475002
45924.3923497
47042.1392156
44232.8281349
49073.6371273
46163.4285622
46590.477746
45255.252507
49666.9037627
46132.6039173
34187.0412772
34237.6899646
35199.6391689
33578.1401221
32347.0780219
33399.645941
32199.0762531
27733.8659443
35224.087612
36640.888592
36775.2187618
40926.9602577
39694.6158026
35915.1465802
36971.7687286
36948.5575038
40284.0635494
29189.3184342
29598.1572324
27853.2294337
28503.9243201
27091.3701887
31032.9796554
34910.8796151
34908.366038
34317.3584739
28951.5908582
31381.1942257
34116.6428433
35082.7701501
34382.2278674
28949.6773399
34565.5548593
34291.1741212
33485.8516941
33616.3950917
35102.0327019
35270.9616636
40392.3967719
40064.3066791
36935.769758
36507.8318443
41960.3400541
41675.2085038
40567.516688
43793.9033818
42281.9158229
41048.9014023
44426.4139073
44255.3521782
42071.2512891
42118.5968057
34460.1992717
36475.4478387
37009.4418696
35343.3495467
34401.8849318
36167.942698
36868.9688926
31917.5020039
30628.5840191
31735.0316621
32434.1162171
33587.3085271
30944.4075086
31794.4931819
30734.9877898
31625.034766
32280.4049604
33395.2821867
30893.8647433
36141.7289581
37147.9235769
36553.2679446
35829.3087533
37115.9305668
36566.3400992
38103.4530501
37948.7985
38796.6410597
34552.7947986
37671.5838246
37453.4455741
27923.5394485
27933.6009451
28014.2868133
28958.7425665
29655.4376725
29116.9432811
29827.34977
34479.8295881
42798.2135444
41027.643271
42963.6519491
37580.2684273
41214.8185729
38348.7499255
37026.9539043
37268.794016
38200.8271151
35216.0017839
34565.1162228
34744.927976
36699.8373475
39733.4882007
38784.2397001
40052.766809
41062.669279
40103.1402883
27289.3717555
28536.054439
28585.2628234
29320.9714468
29299.392674
29648.4017368
28104.3023364
30087.7546488
27893.1883124
30502.8353713
29620.2801562
31717.4196393
31666.0526495
31604.6906892
29869.7751062
30750.1069106
31958.5752387
30971.7732551
32037.8793262
33052.5743048
31943.1380983
32493.8720731
33856.264509
30883.5477453
30783.2276093
31414.4585149
29316.6015325
30306.3754207
30140.2504174
29432.839092
31377.5520278
31524.2483927
31432.1512516
30064.854884
30717.0694503
31876.0355252
31192.1713958
32592.6302783
32892.4584048
32271.9570512
32732.7664163
33926.8611763
31080.0628032
31635.109105
31548.3559911
28926.799097
30734.4176895
30188.7226347
32425.9447699
32195.0412605
35519.909031
32689.2789727
34409.443933
32912.7904678
33837.2248411
33502.5906716
35762.5719594
33126.9715152
33823.4519053
32964.6563091
33146.2247395
32880.3743375
32843.8750281
32824.596213
32688.4234889
37083.6430563
35539.2430556
36793.9841323
36013.5802189
40601.7387238
40278.8783304
37427.7448146
37912.0663361
37347.5836067
38032.565727
37421.8162562
41040.0088916
41254.6874234
42212.0755429
41057.4541377
38662.1196482
39663.9734606
43579.8471266
40820.7590513
36954.9152303
37971.3743139
39162.0021749
38638.3353317
40774.7968139
40906.9452102
42061.991625
40589.9716289
39013.9044764
40612.7664238
38578.5956718
43592.2983644
44687.3133287
42316.7889908
42085.7823111
43702.5799643
45294.5275357
46926.0816515
41397.0514885
45785.313134
45795.1181427
46638.360422
44356.147177
44746.3714696
43947.0753617
42331.9373349
45225.3560099
40959.6301788
44187.7121172
43304.0432498
45258.9497789
46181.5992097
43814.4186963
44411.9444588
45395.664911
42782.4158007
47436.0850445
46208.1567401
45945.8153041
45910.9163853
45830.9163158
46316.4690731
46100.3029439
45858.1790868
43032.0833171
47444.4280923
49713.0717023
46135.8265228
35183.9377127
41089.2656262
38683.3315454
40279.5576896
43449.3777478
44484.9544855
39110.1608802
41546.1149431
41436.9832996
44213.6945635
45070.0272872
36581.3954497
36950.4146894
36169.3319804
35453.9056217
37029.9309656
44957.0779452
41267.0953916
36338.5493154
40920.7227617
37175.6179564
40243.3873121
38620.7723403
37316.0738095
37788.8015118
38220.1094024
35288.0713021
35276.0753158
37001.1025873
40940.3707645
41528.3808089
39789.3800982
41891.96282
40763.2210823
39236.0395858
42109.559591
40157.8714413
40092.6705091
38452.4838492
41850.4696637
42250.4950007
43173.2853352
46170.9642473
46219.2164496
40397.6936898
42793.7382856
44871.6877841
45901.9246157
46631.6525075
41631.7516887
44156.1892038
41904.4069611
44976.4986765
40889.7838757
44293.5204975
42533.8129292
45551.6964981
46106.3981065
43745.3904452
43392.2639616
46184.8896902
45018.8153621
47959.2255174
45551.0423505
46354.5378769
45873.6043973
45543.9626006
49543.0206836
48338.6898893
44205.9375571
46217.6920652
47291.3040589
51409.4540595
49608.402783
46852.9853189
48243.7982477
48596.2411362
48475.2971981
50760.9113055
58674.2928392
46899.9645524
45608.8683473
48232.078382
48390.2317563
49055.8881524
55232.8307243
53386.1787707
51456.7919939
55156.8953118
47549.4433974
50645.4347743
51469.5214447
48826.4928258
52131.6590672
51090.9233465
50783.8137881
49834.0541287
50067.5899475
53133.1962944
52857.9037338
53332.0433802
59711.3297035
58047.7145501
59844.5936839
58489.7514526
57349.8101451
49016.2090178
51054.6789707
48610.2556759
49976.1460019
49066.395356
49278.0507191
53894.9197568
50993.8035278
54141.2436794
54248.2629922
52079.8439428
54786.9092874
53563.9758146
52415.9258616
54875.0922137
53926.5146857
51850.9041571
53736.8055059
49188.9671248
51075.7288527
50505.8508701
54408.6698941
54058.7217076
50544.5357522
51789.3043867
55661.1864029
53225.7279317
52194.0264346
55935.9892533
53369.7933274
54043.6043456
56941.7617997
58225.6626974
56261.7237784
59322.1509728
58553.2211108
58680.5306592
56281.5254129
57530.6032955
54929.5140901
58288.0576039
53787.9554647
57787.4058795
56564.4859692
54237.6260798
58755.1073686
60588.4219429
59506.8679948
59174.4586208
56612.3694591
57371.8880975
60217.6335806
55814.6849704
59131.6462667
56194.1451221
60589.7488457
47936.404293
47134.5296238
47672.87481
50232.6015444
46590.6387887
50941.7541856
47965.0727291
48287.6536149
50455.7920781
60851.9931855
59555.9236459
60969.9931145
61733.4519378
61573.684462
61555.8363142
61760.4313064
46240.6966434
49370.5571361
60454.2102457
61928.2206206
61502.6684414
60535.8912905
62663.9402532
61642.3857818
49011.2444589
49510.8317998
54441.943187
55196.6257824
49207.8464409
48290.1582621
47918.4202268
56233.9115486
55011.9362896
55965.7062211
53786.0277895
51721.6912464
54900.8673145
55897.5767371
60697.2261118
59941.7557434
59664.463624
62075.4233335
61114.640863
54261.5595343
55823.3621621
55448.5169189
55365.1289172
55647.8298864
60706.6935853
59487.7028328
59117.2481152
60869.6453354
61074.7679737
56752.6448211
60987.7597208
59867.3582683
62169.4917795
62149.0237061
66231.3668984
63091.1682748
64574.0190426
68083.9542439
62691.0964803
64068.8171381
64109.55356
65453.1786109
61876.704381
64624.5091583
62697.3243764
65360.156835
47595.9364246
46706.1471019
49376.902098
53731.2909293
51630.9029742
51475.7601463
49003.3805008
52768.8007709
49754.4721055
55587.6998959
59627.0390509
58481.0067127
59123.2546871
59072.3546034
60573.7060041
56971.2634448
60602.2795269
58829.8034502
58262.5101532
60080.3071828
59526.2657032
60044.3441842
59261.1774214
61889.6338648
59738.4166409
59389.1414601
61722.2872224
61346.953921
62009.6450896
62805.1655161
60692.7941927
62838.9673046
63085.8740069
62191.0237041
62364.1242635
61198.4080331
62982.6679622
63144.9752335
49091.4051246
60521.4112254
63801.1941845
65934.5489027
65202.243225
64612.2278764
62123.9093656
61407.707553
61933.8351453
59579.4200781
63762.0999414
62686.0926357
61804.3955864
61217.4083312
59215.9529545
63998.6548011
60956.7539503
64378.0257506
62773.5857315
51208.0784977
50975.3604563
52281.8939205
52711.1087084
48993.6542867
50718.0922301
51109.5367023
53597.9069979
55709.8626491
50522.0639596
50524.7081707
48711.2096594
52791.6507081
50989.4634465
50256.7181269
48772.7861373
49368.2029621
53299.0825789
50215.3304703
54297.2367433
54769.1007588
50452.915265
55240.6096953
53441.7719767
53346.828551
54673.6851067
54384.056463
51581.9021608
51795.2598819
54220.4597801
49835.5395091
50979.801267
55785.6790185
52156.6090378
55751.6603243
54781.5342667
52382.8473643
53306.875535
58738.4161016
59084.9268193
54642.9839519
56027.1819313
56738.6221832
57507.205531
55070.5459292
57691.7084846
58902.2938834
58759.8197376
58293.7557292
56805.7943338
58301.5440612
58355.5443407
56546.7831584
57710.7499145
54207.9079519
57031.0377675
51509.7001628
58584.7671642
56561.1258705
54260.0535696
58977.1336641
60344.1707199
59948.4204669
59002.0276501
60953.9077978
55835.9004828
58083.504151
56606.0009367
58224.7986416
56217.3056394
60883.7520369
51387.8229297
55005.6754705
56826.0932919
57317.9837511
56105.6773883
58325.8432437
58927.9952739
57944.0506969
57752.2470135
60251.8679811
56559.4884457
56992.2082651
59482.7066989
59025.1999716
59241.1740855
58425.0290426
61379.0735485
61414.2964798
64490.9836721
61486.7283765
67086.3648523
65249.3881203
64527.5883157
62253.9051891
61572.0352866
62935.0236277
63837.2860117
60605.9716331
59177.7743024
61177.3775104
65918.5900379
64410.7793539
66336.6079099
63490.4289237
65162.8813672
62514.1194581
59416.6599119
65332.7049166
65752.8838395
65085.6426722
60927.9885278
64670.7649629
63328.412111
64699.884177
60554.4950234
60297.1617338
62892.1862238
65093.6389087
64107.3652475
66410.440977
64239.6679803
65121.8576984
61068.4724305
63860.6747961
63003.435951
66398.4184858
66692.0210492
65698.4651673
65448.2023004
65482.6225946
63348.8799635
67751.7451353
67492.9439714
68418.3759098
62438.9677214
66972.1300349
67148.1352176
70570.9445126
47632.7625683
47658.5321193
47792.1784275
47207.5423603
51825.9233071
51896.2065634
46402.7882956
47241.7320817
49077.7492766
61709.7483308
61598.6014657
49191.1306601
48425.5900179
60974.6273542
58952.0631259
60724.2248312
61503.6080855
61801.9723198
47549.8109777
46444.64209
54568.9440351
56273.2187015
54575.3503407
66596.6662955
61857.1288296
63147.1881822
62801.8390852
64839.7148425
50162.8284775
48376.0058874
55898.8899447
53526.2310008
52154.1265417
49193.588249
48710.8012097
56390.8080144
54293.0283262
54697.6403936
61737.7726478
61111.2631574
61306.6446565
54228.0260484
55874.7895227
55847.8157833
59621.7522962
60687.0473783
55233.4135972
56644.7051569
60509.9005839
60139.3436176
60027.4746068
60562.3794527
59632.0357809
55980.2950865
61888.1165436
59707.9315464
61477.4513011
60389.0125578
61783.0690038
63121.882907
61661.794622
63963.15476
65471.2851954
62025.1644497
64104.2656329
61448.6041882
65849.2497881
66232.4275776
61829.3687898
63560.0125093
63531.9587656
48555.3281116
45669.9830787
50735.3840609
61683.4893523
62215.9751524
61227.651068
61668.9026852
62805.6468809
62877.03772
49181.5492365
50885.2644238
50721.7975957
49985.9898844
49826.6380689
48253.2516084
53493.2342056
50988.5387435
52278.4277332
59740.4450522
58510.6710475
58761.720117
58731.5074858
60387.1620326
56634.8063165
58844.6495642
58501.1707244
59942.4292245
59725.2031194
59678.1152476
59973.8148222
59423.4523533
59350.9554238
60750.3391532
60591.5356401
62314.264229
62356.7548988
61151.8057221
61346.4350019
62571.2736511
62999.5208798
47821.7467187
49915.5043635
53485.9672645
53266.8499532
54810.8245029
52448.1902539
63720.4521303
60920.6293205
66650.4908069
65809.4118303
65641.5549361
63966.5884482
61803.6231977
63299.022346
66007.3658159
65160.6203213
59778.3462232
60893.1927099
60169.3613439
62130.6263813
65551.5246262
64411.6687433
66330.31465
63528.8033566
65218.1343613
51951.3255793
49289.9429581
53329.4257019
50713.3257052
51370.6288987
55742.5109043
55742.9152235
52926.9136788
55381.7673311
55473.5137194
53157.8799716
50622.8524389
47746.3253094
51046.8458656
48856.0267863
50361.4592665
50528.918177
53702.2190379
50587.5522729
54202.5600133
54345.0408798
51836.0800712
52871.6511449
54864.3626383
53823.0193266
54197.5068822
51558.4905945
51793.1887907
52733.3103584
54348.7072718
57631.3466089
54962.0273115
56493.1107863
53399.6643797
56919.5396245
56542.0319642
54846.1418145
61113.2845793
58552.9634397
61010.1667685
60363.0589429
58337.6581657
60102.4128062
55881.8674222
56890.7318216
56987.6336548
59218.9461444
55731.8197181
61051.5735834
54105.6115372
56528.1294652
58298.6373086
55286.445379
56138.6238167
56376.2158441
58021.9611357
55595.0046487
58474.2716024
58926.4553012
58943.0956554
57640.3311741
56584.0730582
57559.7352421
58936.3941676
56533.3729998
57136.7102979
56481.4807204
56153.5198809
59126.6853532
59267.7148361
59630.4913004
58161.1248648
59493.5171456
57271.2320854
59527.6359757
55109.1017811
56502.5731639
57690.0706306
58276.6503332
57713.5023001
60466.2624293
61158.0683271
65519.7420842
63730.4884353
64610.765588
61565.6957703
61947.1380731
62967.1934451
61868.6911595
62165.7747108
61255.7032014
61942.1984622
63971.2905043
63067.1393861
61533.6978251
63534.037755
62926.6517362
63693.7464175
63706.3094999
68081.772037
67992.5728237
65607.0094263
65824.5565278
65292.7814643
63506.0233683
68671.6936457
66885.0220222
68735.131539
63289.0216687
68538.7890658
67331.722486
68699.7018845
63732.6628256
60836.8387048
67707.0683874
65290.2388199
64218.8920268
62043.2310121
63410.8655458
63698.6459108
64150.5078474
60366.0666486
60872.1411546
59230.9791084