  # Source : patch bedOfSpheres_to_fluid
# Faces  : 2688
# Time	sum(magSf)	areaAverage(T)
4.021803e+01	3.143397e+00	5.977258e+02
4.073781e+01	3.143397e+00	5.959598e+02
4.125759e+01	3.143397e+00	5.946879e+02
4.177737e+01	3.143397e+00	5.936243e+02
4.229715e+01	3.143397e+00	5.926872e+02
4.281693e+01	3.143397e+00	5.918393e+02
4.333671e+01	3.143397e+00	5.910589e+02
4.385648e+01	3.143397e+00	5.903318e+02
4.437626e+01	3.143397e+00	5.896480e+02
4.489604e+01	3.143397e+00	5.890000e+02
4.541451e+01	3.143397e+00	5.883838e+02
4.593264e+01	3.143397e+00	5.877937e+02
4.645078e+01	3.143397e+00	5.872260e+02
4.696891e+01	3.143397e+00	5.866779e+02
4.748705e+01	3.143397e+00	5.861472e+02
4.800518e+01	3.143397e+00	5.856320e+02
4.852332e+01	3.143397e+00	5.851308e+02
4.904145e+01	3.143397e+00	5.846423e+02
4.955959e+01	3.143397e+00	5.841653e+02
5.007772e+01	3.143397e+00	5.836990e+02
5.059585e+01	3.143397e+00	5.832424e+02
5.111399e+01	3.143397e+00	5.827949e+02
5.163212e+01	3.143397e+00	5.823559e+02
5.215026e+01	3.143397e+00	5.819247e+02
5.266839e+01	3.143397e+00	5.815008e+02
5.318653e+01	3.143397e+00	5.810839e+02
5.370466e+01	3.143397e+00	5.806734e+02
5.422280e+01	3.143397e+00	5.802691e+02
5.474093e+01	3.143397e+00	5.798706e+02
5.525907e+01	3.143397e+00	5.794775e+02
5.577720e+01	3.143397e+00	5.790897e+02
5.629534e+01	3.143397e+00	5.787068e+02
5.681347e+01	3.143397e+00	5.783286e+02
5.733161e+01	3.143397e+00	5.779549e+02
5.784974e+01	3.143397e+00	5.775855e+02
5.836788e+01	3.143397e+00	5.772202e+02
5.888601e+01	3.143397e+00	5.768588e+02
5.940415e+01	3.143397e+00	5.765011e+02
5.992228e+01	3.143397e+00	5.761471e+02
6.044041e+01	3.143397e+00	5.757965e+02
6.095855e+01	3.143397e+00	5.754492e+02
6.147668e+01	3.143397e+00	5.751052e+02
6.199482e+01	3.143397e+00	5.747642e+02
6.251295e+01	3.143397e+00	5.744262e+02
6.303109e+01	3.143397e+00	5.740910e+02
6.354922e+01	3.143397e+00	5.737586e+02
6.406736e+01	3.143397e+00	5.734289e+02
6.458549e+01	3.143397e+00	5.731017e+02
6.510363e+01	3.143397e+00	5.727771e+02
6.562176e+01	3.143397e+00	5.724548e+02
6.613990e+01	3.143397e+00	5.721349e+02
6.665803e+01	3.143397e+00	5.718172e+02
6.717617e+01	3.143397e+00	5.715017e+02
6.769430e+01	3.143397e+00	5.711883e+02
6.821244e+01	3.143397e+00	5.708770e+02
6.873057e+01	3.143397e+00	5.705677e+02
6.924870e+01	3.143397e+00	5.702603e+02
6.976684e+01	3.143397e+00	5.699549e+02
7.028497e+01	3.143397e+00	5.696512e+02
7.080311e+01	3.143397e+00	5.693494e+02
7.132124e+01	3.143397e+00	5.690492e+02
7.183938e+01	3.143397e+00	5.687508e+02
7.235751e+01	3.143397e+00	5.684540e+02
7.287565e+01	3.143397e+00	5.681588e+02
7.339378e+01	3.143397e+00	5.678652e+02
7.391192e+01	3.143397e+00	5.675731e+02
7.443005e+01	3.143397e+00	5.672824e+02
7.494819e+01	3.143397e+00	5.669933e+02
7.546632e+01	3.143397e+00	5.667055e+02
7.598446e+01	3.143397e+00	5.664191e+02
7.650259e+01	3.143397e+00	5.661341e+02
7.702073e+01	3.143397e+00	5.658503e+02
7.753886e+01	3.143397e+00	5.655679e+02
7.805699e+01	3.143397e+00	5.652867e+02
7.857513e+01	3.143397e+00	5.650068e+02
7.909326e+01	3.143397e+00	5.647280e+02
7.961140e+01	3.143397e+00	5.644505e+02
8.012953e+01	3.143397e+00	5.641740e+02
8.064767e+01	3.143397e+00	5.638987e+02
8.116580e+01	3.143397e+00	5.636245e+02
8.168394e+01	3.143397e+00	5.633514e+02
8.220207e+01	3.143397e+00	5.630794e+02
8.272021e+01	3.143397e+00	5.628084e+02
8.323834e+01	3.143397e+00	5.625384e+02
8.375648e+01	3.143397e+00	5.622694e+02
8.427461e+01	3.143397e+00	5.620013e+02
8.479275e+01	3.143397e+00	5.617343e+02
8.531088e+01	3.143397e+00	5.614681e+02
8.582902e+01	3.143397e+00	5.612029e+02
8.634715e+01	3.143397e+00	5.609386e+02
8.686528e+01	3.143397e+00	5.606752e+02
8.738342e+01	3.143397e+00	5.604127e+02
8.790155e+01	3.143397e+00	5.601510e+02
8.841969e+01	3.143397e+00	5.598902e+02
8.893782e+01	3.143397e+00	5.596301e+02
8.945596e+01	3.143397e+00	5.593709e+02
8.997409e+01	3.143397e+00	5.591125e+02
9.049223e+01	3.143397e+00	5.588549e+02
9.101036e+01	3.143397e+00	5.585981e+02
9.152850e+01	3.143397e+00	5.583420e+02
9.204663e+01	3.143397e+00	5.580866e+02
9.256477e+01	3.143397e+00	5.578320e+02
9.308290e+01	3.143397e+00	5.575781e+02
9.360104e+01	3.143397e+00	5.573250e+02
9.411917e+01	3.143397e+00	5.570725e+02
9.463731e+01	3.143397e+00	5.568207e+02
9.515544e+01	3.143397e+00	5.565696e+02
9.567358e+01	3.143397e+00	5.563191e+02
9.619171e+01	3.143397e+00	5.560693e+02
9.670984e+01	3.143397e+00	5.558202e+02
9.722798e+01	3.143397e+00	5.555717e+02
9.774611e+01	3.143397e+00	5.553238e+02
9.826425e+01	3.143397e+00	5.550765e+02
9.878238e+01	3.143397e+00	5.548299e+02
9.930052e+01	3.143397e+00	5.545838e+02
9.981865e+01	3.143397e+00	5.543384e+02
1.003368e+02	3.143397e+00	5.540935e+02
1.008549e+02	3.143397e+00	5.538492e+02
1.013731e+02	3.143397e+00	5.536054e+02
1.018912e+02	3.143397e+00	5.533623e+02
1.024093e+02	3.143397e+00	5.531196e+02
1.029275e+02	3.143397e+00	5.528776e+02
1.034456e+02	3.143397e+00	5.526360e+02
1.039637e+02	3.143397e+00	5.523950e+02
1.044819e+02	3.143397e+00	5.521545e+02
1.050000e+02	3.143397e+00	5.519145e+02
1.055181e+02	3.143397e+00	5.516751e+02
1.060363e+02	3.143397e+00	5.514361e+02
1.065544e+02	3.143397e+00	5.511976e+02
1.070725e+02	3.143397e+00	5.509597e+02
1.075907e+02	3.143397e+00	5.507222e+02
1.081088e+02	3.143397e+00	5.504852e+02
1.086269e+02	3.143397e+00	5.502486e+02
1.091451e+02	3.143397e+00	5.500125e+02
1.096632e+02	3.143397e+00	5.497769e+02
1.101813e+02	3.143397e+00	5.495418e+02
1.106995e+02	3.143397e+00	5.493071e+02
1.112176e+02	3.143397e+00	5.490728e+02
1.117358e+02	3.143397e+00	5.488390e+02
1.122539e+02	3.143397e+00	5.486056e+02
1.127720e+02	3.143397e+00	5.483726e+02
1.132902e+02	3.143397e+00	5.481401e+02
1.138083e+02	3.143397e+00	5.479080e+02
1.143264e+02	3.143397e+00	5.476763e+02
1.148446e+02	3.143397e+00	5.474450e+02
1.153627e+02	3.143397e+00	5.472142e+02
1.158808e+02	3.143397e+00	5.469837e+02
1.163990e+02	3.143397e+00	5.467536e+02
1.169171e+02	3.143397e+00	5.465239e+02
1.174352e+02	3.143397e+00	5.462946e+02
1.179534e+02	3.143397e+00	5.460657e+02
1.184715e+02	3.143397e+00	5.458372e+02
1.189896e+02	3.143397e+00	5.456091e+02
1.195078e+02	3.143397e+00	5.453813e+02
1.200259e+02	3.143397e+00	5.451539e+02
1.205440e+02	3.143397e+00	5.449269e+02
1.210622e+02	3.143397e+00	5.447002e+02
1.215803e+02	3.143397e+00	5.444739e+02
1.220984e+02	3.143397e+00	5.442479e+02
1.226166e+02	3.143397e+00	5.440223e+02
1.231347e+02	3.143397e+00	5.437971e+02
1.236528e+02	3.143397e+00	5.435722e+02
1.241710e+02	3.143397e+00	5.433476e+02
1.246891e+02	3.143397e+00	5.431234e+02
1.252073e+02	3.143397e+00	5.428995e+02
1.257254e+02	3.143397e+00	5.426760e+02
1.262435e+02	3.143397e+00	5.424528e+02
1.267617e+02	3.143397e+00	5.422299e+02
1.272798e+02	3.143397e+00	5.420073e+02
1.277979e+02	3.143397e+00	5.417851e+02
1.283161e+02	3.143397e+00	5.415632e+02
1.288342e+02	3.143397e+00	5.413416e+02
1.293523e+02	3.143397e+00	5.411203e+02
1.298705e+02	3.143397e+00	5.408993e+02
1.303886e+02	3.143397e+00	5.406787e+02
1.309067e+02	3.143397e+00	5.404583e+02
1.314249e+02	3.143397e+00	5.402383e+02
1.319430e+02	3.143397e+00	5.400185e+02
1.324611e+02	3.143397e+00	5.397991e+02
1.329793e+02	3.143397e+00	5.395799e+02
1.334974e+02	3.143397e+00	5.393611e+02
1.340155e+02	3.143397e+00	5.391425e+02
1.345337e+02	3.143397e+00	5.389243e+02
1.350518e+02	3.143397e+00	5.387063e+02
1.355699e+02	3.143397e+00	5.384886e+02
1.360881e+02	3.143397e+00	5.382712e+02
1.366062e+02	3.143397e+00	5.380541e+02
1.371244e+02	3.143397e+00	5.378373e+02
1.376425e+02	3.143397e+00	5.376207e+02
1.381606e+02	3.143397e+00	5.374044e+02
1.386788e+02	3.143397e+00	5.371884e+02
1.391969e+02	3.143397e+00	5.369727e+02
1.397150e+02	3.143397e+00	5.367572e+02
1.402332e+02	3.143397e+00	5.365420e+02
1.407513e+02	3.143397e+00	5.363271e+02
1.412694e+02	3.143397e+00	5.361125e+02
1.417876e+02	3.143397e+00	5.358981e+02
1.423057e+02	3.143397e+00	5.356840e+02
1.428238e+02	3.143397e+00	5.354701e+02
1.433420e+02	3.143397e+00	5.352565e+02
1.438601e+02	3.143397e+00	5.350432e+02
1.443782e+02	3.143397e+00	5.348301e+02
1.448964e+02	3.143397e+00	5.346173e+02
1.454145e+02	3.143397e+00	5.344047e+02
1.459326e+02	3.143397e+00	5.341924e+02
1.464508e+02	3.143397e+00	5.339803e+02
1.469689e+02	3.143397e+00	5.337685e+02
1.474870e+02	3.143397e+00	5.335569e+02
1.480052e+02	3.143397e+00	5.333456e+02
1.485233e+02	3.143397e+00	5.331345e+02
1.490415e+02	3.143397e+00	5.329237e+02
1.495596e+02	3.143397e+00	5.327131e+02
1.500777e+02	3.143397e+00	5.325028e+02
1.505959e+02	3.143397e+00	5.322927e+02
1.511140e+02	3.143397e+00	5.320828e+02
1.516321e+02	3.143397e+00	5.318732e+02
1.521503e+02	3.143397e+00	5.316638e+02
1.526684e+02	3.143397e+00	5.314546e+02
1.531865e+02	3.143397e+00	5.312457e+02
1.537047e+02	3.143397e+00	5.310370e+02
1.542228e+02	3.143397e+00	5.308286e+02
1.547409e+02	3.143397e+00	5.306203e+02
1.552591e+02	3.143397e+00	5.304124e+02
1.557772e+02	3.143397e+00	5.302046e+02
1.562953e+02	3.143397e+00	5.299971e+02
1.568135e+02	3.143397e+00	5.297897e+02
1.573316e+02	3.143397e+00	5.295827e+02
1.578497e+02	3.143397e+00	5.293758e+02
1.583679e+02	3.143397e+00	5.291692e+02
1.588860e+02	3.143397e+00	5.289628e+02
1.594041e+02	3.143397e+00	5.287566e+02
1.599223e+02	3.143397e+00	5.285506e+02
1.604404e+02	3.143397e+00	5.283449e+02
1.609585e+02	3.143397e+00	5.281393e+02
1.614767e+02	3.143397e+00	5.279340e+02
1.619948e+02	3.143397e+00	5.277289e+02
1.625130e+02	3.143397e+00	5.275241e+02
1.630311e+02	3.143397e+00	5.273194e+02
1.635492e+02	3.143397e+00	5.271150e+02
1.640674e+02	3.143397e+00	5.269107e+02
1.645855e+02	3.143397e+00	5.267067e+02
1.651036e+02	3.143397e+00	5.265029e+02
1.656218e+02	3.143397e+00	5.262993e+02
1.661399e+02	3.143397e+00	5.260959e+02
1.666580e+02	3.143397e+00	5.258928e+02
1.671762e+02	3.143397e+00	5.256898e+02
1.676943e+02	3.143397e+00	5.254871e+02
1.682124e+02	3.143397e+00	5.252845e+02
1.687306e+02	3.143397e+00	5.250822e+02
1.692487e+02	3.143397e+00	5.248800e+02
1.697668e+02	3.143397e+00	5.246781e+02
1.702850e+02	3.143397e+00	5.244764e+02
1.708031e+02	3.143397e+00	5.242749e+02
1.713212e+02	3.143397e+00	5.240736e+02
1.718394e+02	3.143397e+00	5.238725e+02
1.723575e+02	3.143397e+00	5.236716e+02
1.728756e+02	3.143397e+00	5.234709e+02
1.733938e+02	3.143397e+00	5.232704e+02
1.739119e+02	3.143397e+00	5.230701e+02
1.744301e+02	3.143397e+00	5.228700e+02
1.749482e+02	3.143397e+00	5.226701e+02
1.754663e+02	3.143397e+00	5.224704e+02
1.759845e+02	3.143397e+00	5.222709e+02
1.765026e+02	3.143397e+00	5.220716e+02
1.770207e+02	3.143397e+00	5.218724e+02
1.775389e+02	3.143397e+00	5.216735e+02
1.780570e+02	3.143397e+00	5.214748e+02
1.785751e+02	3.143397e+00	5.212763e+02
1.790933e+02	3.143397e+00	5.210780e+02
1.796114e+02	3.143397e+00	5.208798e+02
1.801295e+02	3.143397e+00	5.206819e+02
1.806477e+02	3.143397e+00	5.204842e+02
1.811658e+02	3.143397e+00	5.202866e+02
1.816839e+02	3.143397e+00	5.200893e+02
1.822021e+02	3.143397e+00	5.198921e+02
1.827202e+02	3.143397e+00	5.196951e+02
1.832383e+02	3.143397e+00	5.194983e+02
1.837565e+02	3.143397e+00	5.193017e+02
1.842746e+02	3.143397e+00	5.191053e+02
1.847927e+02	3.143397e+00	5.189091e+02
1.853109e+02	3.143397e+00	5.187131e+02
1.858290e+02	3.143397e+00	5.185173e+02
1.863472e+02	3.143397e+00	5.183216e+02
1.868653e+02	3.143397e+00	5.181262e+02
1.873834e+02	3.143397e+00	5.179309e+02
1.879016e+02	3.143397e+00	5.177358e+02
1.884197e+02	3.143397e+00	5.175409e+02
1.889378e+02	3.143397e+00	5.173462e+02
1.894560e+02	3.143397e+00	5.171517e+02
1.899741e+02	3.143397e+00	5.169574e+02
1.904922e+02	3.143397e+00	5.167632e+02
1.910104e+02	3.143397e+00	5.165693e+02
1.915285e+02	3.143397e+00	5.163755e+02
1.920466e+02	3.143397e+00	5.161819e+02
1.925648e+02	3.143397e+00	5.159885e+02
1.930829e+02	3.143397e+00	5.157952e+02
1.936010e+02	3.143397e+00	5.156022e+02
1.941192e+02	3.143397e+00	5.154093e+02
1.946373e+02	3.143397e+00	5.152166e+02
1.951554e+02	3.143397e+00	5.150241e+02
1.956736e+02	3.143397e+00	5.148318e+02
1.961917e+02	3.143397e+00	5.146397e+02
1.967098e+02	3.143397e+00	5.144477e+02
1.972280e+02	3.143397e+00	5.142559e+02
1.977461e+02	3.143397e+00	5.140643e+02
1.982642e+02	3.143397e+00	5.138729e+02
1.987824e+02	3.143397e+00	5.136817e+02
1.993005e+02	3.143397e+00	5.134906e+02
1.998187e+02	3.143397e+00	5.132997e+02
2.003368e+02	3.143397e+00	5.131090e+02
2.008549e+02	3.143397e+00	5.129185e+02
2.013731e+02	3.143397e+00	5.127282e+02
2.018912e+02	3.143397e+00	5.125380e+02
2.024093e+02	3.143397e+00	5.123480e+02
2.029275e+02	3.143397e+00	5.121582e+02
2.034456e+02	3.143397e+00	5.119685e+02
2.039637e+02	3.143397e+00	5.117791e+02
2.044819e+02	3.143397e+00	5.115898e+02
2.050000e+02	3.143397e+00	5.114007e+02
2.055181e+02	3.143397e+00	5.112117e+02
2.060363e+02	3.143397e+00	5.110230e+02
2.065544e+02	3.143397e+00	5.108344e+02
2.070725e+02	3.143397e+00	5.106460e+02
2.075907e+02	3.143397e+00	5.104577e+02
2.081088e+02	3.143397e+00	5.102697e+02
2.086269e+02	3.143397e+00	5.100818e+02
2.091451e+02	3.143397e+00	5.098941e+02
2.096632e+02	3.143397e+00	5.097065e+02
2.101813e+02	3.143397e+00	5.095192e+02
2.106995e+02	3.143397e+00	5.093320e+02
2.112176e+02	3.143397e+00	5.091449e+02
2.117358e+02	3.143397e+00	5.089581e+02
2.122539e+02	3.143397e+00	5.087714e+02
2.127720e+02	3.143397e+00	5.085849e+02
2.132902e+02	3.143397e+00	5.083986e+02
2.138083e+02	3.143397e+00	5.082124e+02
2.143264e+02	3.143397e+00	5.080264e+02
2.148446e+02	3.143397e+00	5.078406e+02
2.153627e+02	3.143397e+00	5.076549e+02
2.158808e+02	3.143397e+00	5.074694e+02
2.163990e+02	3.143397e+00	5.072841e+02
2.169171e+02	3.143397e+00	5.070990e+02
2.174352e+02	3.143397e+00	5.069140e+02
2.179534e+02	3.143397e+00	5.067292e+02
2.184715e+02	3.143397e+00	5.065446e+02
2.189896e+02	3.143397e+00	5.063601e+02
2.195078e+02	3.143397e+00	5.061758e+02
2.200259e+02	3.143397e+00	5.059917e+02
2.205440e+02	3.143397e+00	5.058077e+02
2.210622e+02	3.143397e+00	5.056239e+02
2.215803e+02	3.143397e+00	5.054403e+02
2.220984e+02	3.143397e+00	5.052568e+02
2.226166e+02	3.143397e+00	5.050735e+02
2.231347e+02	3.143397e+00	5.048904e+02
2.236528e+02	3.143397e+00	5.047075e+02
2.241710e+02	3.143397e+00	5.045247e+02
2.246891e+02	3.143397e+00	5.043420e+02
2.252073e+02	3.143397e+00	5.041596e+02
2.257254e+02	3.143397e+00	5.039773e+02
2.262435e+02	3.143397e+00	5.037952e+02
2.267617e+02	3.143397e+00	5.036132e+02
2.272798e+02	3.143397e+00	5.034314e+02
2.277979e+02	3.143397e+00	5.032498e+02
2.283161e+02	3.143397e+00	5.030683e+02
2.288342e+02	3.143397e+00	5.028870e+02
2.293523e+02	3.143397e+00	5.027059e+02
2.298705e+02	3.143397e+00	5.025249e+02
2.303886e+02	3.143397e+00	5.023441e+02
2.309067e+02	3.143397e+00	5.021634e+02
2.314249e+02	3.143397e+00	5.019830e+02
2.319430e+02	3.143397e+00	5.018026e+02
2.324611e+02	3.143397e+00	5.016225e+02
2.329793e+02	3.143397e+00	5.014425e+02
2.334974e+02	3.143397e+00	5.012627e+02
2.340155e+02	3.143397e+00	5.010830e+02
2.345337e+02	3.143397e+00	5.009035e+02
2.350518e+02	3.143397e+00	5.007242e+02
2.355699e+02	3.143397e+00	5.005450e+02
2.360881e+02	3.143397e+00	5.003660e+02
2.366062e+02	3.143397e+00	5.001871e+02
2.371244e+02	3.143397e+00	5.000084e+02
2.376425e+02	3.143397e+00	4.998299e+02
2.381606e+02	3.143397e+00	4.996515e+02
2.386788e+02	3.143397e+00	4.994733e+02
2.391969e+02	3.143397e+00	4.992953e+02
2.397150e+02	3.143397e+00	4.991174e+02
2.402332e+02	3.143397e+00	4.989396e+02
2.407513e+02	3.143397e+00	4.987621e+02
2.412694e+02	3.143397e+00	4.985847e+02
2.417876e+02	3.143397e+00	4.984074e+02
2.423057e+02	3.143397e+00	4.982303e+02
2.428238e+02	3.143397e+00	4.980534e+02
2.433420e+02	3.143397e+00	4.978766e+02
2.438601e+02	3.143397e+00	4.977000e+02
2.443782e+02	3.143397e+00	4.975236e+02
2.448964e+02	3.143397e+00	4.973473e+02
2.454145e+02	3.143397e+00	4.971712e+02
2.459326e+02	3.143397e+00	4.969952e+02
2.464508e+02	3.143397e+00	4.968194e+02
2.469689e+02	3.143397e+00	4.966437e+02
2.474870e+02	3.143397e+00	4.964682e+02
2.480052e+02	3.143397e+00	4.962929e+02
2.485233e+02	3.143397e+00	4.961177e+02
2.490415e+02	3.143397e+00	4.959427e+02
2.495596e+02	3.143397e+00	4.957678e+02
2.500777e+02	3.143397e+00	4.955931e+02
2.505959e+02	3.143397e+00	4.954186e+02
2.511140e+02	3.143397e+00	4.952442e+02
2.516321e+02	3.143397e+00	4.950699e+02
2.521503e+02	3.143397e+00	4.948958e+02
2.526684e+02	3.143397e+00	4.947219e+02
2.531865e+02	3.143397e+00	4.945482e+02
2.537047e+02	3.143397e+00	4.943745e+02
2.542228e+02	3.143397e+00	4.942011e+02
2.547409e+02	3.143397e+00	4.940278e+02
2.552591e+02	3.143397e+00	4.938546e+02
2.557772e+02	3.143397e+00	4.936817e+02
2.562953e+02	3.143397e+00	4.935088e+02
2.568135e+02	3.143397e+00	4.933361e+02
2.573316e+02	3.143397e+00	4.931636e+02
2.578497e+02	3.143397e+00	4.929913e+02
2.583679e+02	3.143397e+00	4.928190e+02
2.588860e+02	3.143397e+00	4.926470e+02
2.594041e+02	3.143397e+00	4.924751e+02
2.599223e+02	3.143397e+00	4.923033e+02
2.604404e+02	3.143397e+00	4.921317e+02
2.609585e+02	3.143397e+00	4.919603e+02
2.614767e+02	3.143397e+00	4.917890e+02
2.619948e+02	3.143397e+00	4.916179e+02
2.625130e+02	3.143397e+00	4.914469e+02
2.630311e+02	3.143397e+00	4.912761e+02
2.635492e+02	3.143397e+00	4.911054e+02
2.640674e+02	3.143397e+00	4.909349e+02
2.645855e+02	3.143397e+00	4.907645e+02
2.651036e+02	3.143397e+00	4.905943e+02
2.656218e+02	3.143397e+00	4.904242e+02
2.661399e+02	3.143397e+00	4.902543e+02
2.666580e+02	3.143397e+00	4.900846e+02
2.671762e+02	3.143397e+00	4.899150e+02
2.676943e+02	3.143397e+00	4.897455e+02
2.682124e+02	3.143397e+00	4.895762e+02
2.687306e+02	3.143397e+00	4.894071e+02
2.692487e+02	3.143397e+00	4.892381e+02
2.697668e+02	3.143397e+00	4.890692e+02
2.702850e+02	3.143397e+00	4.889005e+02
2.708031e+02	3.143397e+00	4.887320e+02
2.713212e+02	3.143397e+00	4.885636e+02
2.718394e+02	3.143397e+00	4.883953e+02
2.723575e+02	3.143397e+00	4.882273e+02
2.728756e+02	3.143397e+00	4.880593e+02
2.733938e+02	3.143397e+00	4.878915e+02
2.739119e+02	3.143397e+00	4.877239e+02
2.744301e+02	3.143397e+00	4.875564e+02
2.749482e+02	3.143397e+00	4.873891e+02
2.754663e+02	3.143397e+00	4.872219e+02
2.759845e+02	3.143397e+00	4.870548e+02
2.765026e+02	3.143397e+00	4.868879e+02
2.770207e+02	3.143397e+00	4.867212e+02
2.775389e+02	3.143397e+00	4.865546e+02
2.780570e+02	3.143397e+00	4.863882e+02
2.785751e+02	3.143397e+00	4.862219e+02
2.790933e+02	3.143397e+00	4.860557e+02
2.796114e+02	3.143397e+00	4.858897e+02
2.801295e+02	3.143397e+00	4.857239e+02
2.806477e+02	3.143397e+00	4.855582e+02
2.811658e+02	3.143397e+00	4.853926e+02
2.816839e+02	3.143397e+00	4.852272e+02
2.822021e+02	3.143397e+00	4.850620e+02
2.827202e+02	3.143397e+00	4.848969e+02
2.832383e+02	3.143397e+00	4.847319e+02
2.837565e+02	3.143397e+00	4.845671e+02
2.842746e+02	3.143397e+00	4.844024e+02
2.847927e+02	3.143397e+00	4.842379e+02
2.853109e+02	3.143397e+00	4.840736e+02
2.858290e+02	3.143397e+00	4.839093e+02
2.863472e+02	3.143397e+00	4.837453e+02
2.868653e+02	3.143397e+00	4.835813e+02
2.873834e+02	3.143397e+00	4.834176e+02
2.879016e+02	3.143397e+00	4.832539e+02
2.884197e+02	3.143397e+00	4.830904e+02
2.889378e+02	3.143397e+00	4.829271e+02
2.894560e+02	3.143397e+00	4.827639e+02
2.899741e+02	3.143397e+00	4.826009e+02
2.904922e+02	3.143397e+00	4.824379e+02
2.910104e+02	3.143397e+00	4.822752e+02
2.915285e+02	3.143397e+00	4.821126e+02
2.920466e+02	3.143397e+00	4.819501e+02
2.925648e+02	3.143397e+00	4.817878e+02
2.930829e+02	3.143397e+00	4.816256e+02
2.936010e+02	3.143397e+00	4.814636e+02
2.941192e+02	3.143397e+00	4.813017e+02
2.946373e+02	3.143397e+00	4.811400e+02
2.951554e+02	3.143397e+00	4.809784e+02
2.956736e+02	3.143397e+00	4.808169e+02
2.961917e+02	3.143397e+00	4.806556e+02
2.967098e+02	3.143397e+00	4.804944e+02
2.972280e+02	3.143397e+00	4.803334e+02
2.977461e+02	3.143397e+00	4.801725e+02
2.982642e+02	3.143397e+00	4.800118e+02
2.987824e+02	3.143397e+00	4.798512e+02
2.993005e+02	3.143397e+00	4.796908e+02
2.998187e+02	3.143397e+00	4.795305e+02
3.003368e+02	3.143397e+00	4.793703e+02
3.008549e+02	3.143397e+00	4.792103e+02
3.013731e+02	3.143397e+00	4.790504e+02
3.018912e+02	3.143397e+00	4.788907e+02
3.024093e+02	3.143397e+00	4.787311e+02
3.029275e+02	3.143397e+00	4.785717e+02
3.034456e+02	3.143397e+00	4.784124e+02
3.039637e+02	3.143397e+00	4.782532e+02
3.044819e+02	3.143397e+00	4.780942e+02
3.050000e+02	3.143397e+00	4.779353e+02
3.055181e+02	3.143397e+00	4.777766e+02
3.060363e+02	3.143397e+00	4.776180e+02
3.065544e+02	3.143397e+00	4.774596e+02
3.070725e+02	3.143397e+00	4.773013e+02
3.075907e+02	3.143397e+00	4.771431e+02
3.081088e+02	3.143397e+00	4.769851e+02
3.086269e+02	3.143397e+00	4.768272e+02
3.091451e+02	3.143397e+00	4.766694e+02
3.096632e+02	3.143397e+00	4.765118e+02
3.101813e+02	3.143397e+00	4.763544e+02
3.106995e+02	3.143397e+00	4.761971e+02
3.112176e+02	3.143397e+00	4.760399e+02
3.117358e+02	3.143397e+00	4.758828e+02
3.122539e+02	3.143397e+00	4.757260e+02
3.127720e+02	3.143397e+00	4.755692e+02
3.132902e+02	3.143397e+00	4.754126e+02
3.138083e+02	3.143397e+00	4.752561e+02
3.143264e+02	3.143397e+00	4.750998e+02
3.148446e+02	3.143397e+00	4.749436e+02
3.153627e+02	3.143397e+00	4.747875e+02
3.158808e+02	3.143397e+00	4.746316e+02
3.163990e+02	3.143397e+00	4.744758e+02
3.169171e+02	3.143397e+00	4.743202e+02
3.174352e+02	3.143397e+00	4.741647e+02
3.179534e+02	3.143397e+00	4.740093e+02
3.184715e+02	3.143397e+00	4.738541e+02
3.189896e+02	3.143397e+00	4.736990e+02
3.195078e+02	3.143397e+00	4.735441e+02
3.200259e+02	3.143397e+00	4.733893e+02
3.205440e+02	3.143397e+00	4.732346e+02
3.210622e+02	3.143397e+00	4.730801e+02
3.215803e+02	3.143397e+00	4.729257e+02
3.220984e+02	3.143397e+00	4.727714e+02
3.226166e+02	3.143397e+00	4.726173e+02
3.231347e+02	3.143397e+00	4.724633e+02
3.236528e+02	3.143397e+00	4.723095e+02
3.241710e+02	3.143397e+00	4.721558e+02
3.246891e+02	3.143397e+00	4.720022e+02
3.252073e+02	3.143397e+00	4.718488e+02
3.257254e+02	3.143397e+00	4.716955e+02
3.262435e+02	3.143397e+00	4.715423e+02
3.267617e+02	3.143397e+00	4.713893e+02
3.272798e+02	3.143397e+00	4.712364e+02
3.277979e+02	3.143397e+00	4.710837e+02
3.283161e+02	3.143397e+00	4.709311e+02
3.288342e+02	3.143397e+00	4.707786e+02
3.293523e+02	3.143397e+00	4.706263e+02
3.298705e+02	3.143397e+00	4.704741e+02
3.303886e+02	3.143397e+00	4.703220e+02
3.309067e+02	3.143397e+00	4.701701e+02
3.314249e+02	3.143397e+00	4.700183e+02
3.319430e+02	3.143397e+00	4.698666e+02
3.324611e+02	3.143397e+00	4.697151e+02
3.329793e+02	3.143397e+00	4.695637e+02
3.334974e+02	3.143397e+00	4.694125e+02
3.340155e+02	3.143397e+00	4.692614e+02
3.345337e+02	3.143397e+00	4.691104e+02
3.350518e+02	3.143397e+00	4.689595e+02
3.355699e+02	3.143397e+00	4.688088e+02
3.360881e+02	3.143397e+00	4.686583e+02
3.366062e+02	3.143397e+00	4.685078e+02
3.371244e+02	3.143397e+00	4.683575e+02
3.376425e+02	3.143397e+00	4.682073e+02
3.381606e+02	3.143397e+00	4.680573e+02
3.386788e+02	3.143397e+00	4.679074e+02
3.391969e+02	3.143397e+00	4.677576e+02
3.397150e+02	3.143397e+00	4.676080e+02
3.402332e+02	3.143397e+00	4.674585e+02
3.407513e+02	3.143397e+00	4.673091e+02
3.412694e+02	3.143397e+00	4.671599e+02
3.417876e+02	3.143397e+00	4.670108e+02
3.423057e+02	3.143397e+00	4.668618e+02
3.428238e+02	3.143397e+00	4.667130e+02
3.433420e+02	3.143397e+00	4.665643e+02
3.438601e+02	3.143397e+00	4.664157e+02
3.443782e+02	3.143397e+00	4.662672e+02
3.448964e+02	3.143397e+00	4.661189e+02
3.454145e+02	3.143397e+00	4.659708e+02
3.459326e+02	3.143397e+00	4.658227e+02
3.464508e+02	3.143397e+00	4.656748e+02
3.469689e+02	3.143397e+00	4.655270e+02
3.474870e+02	3.143397e+00	4.653794e+02
3.480052e+02	3.143397e+00	4.652319e+02
3.485233e+02	3.143397e+00	4.650845e+02
3.490415e+02	3.143397e+00	4.649372e+02
3.495596e+02	3.143397e+00	4.647901e+02
3.500777e+02	3.143397e+00	4.646431e+02
3.505959e+02	3.143397e+00	4.644963e+02
3.511140e+02	3.143397e+00	4.643496e+02
3.516321e+02	3.143397e+00	4.642030e+02
3.521503e+02	3.143397e+00	4.640565e+02
3.526684e+02	3.143397e+00	4.639102e+02
3.531865e+02	3.143397e+00	4.637640e+02
3.537047e+02	3.143397e+00	4.636179e+02
3.542228e+02	3.143397e+00	4.634720e+02
3.547409e+02	3.143397e+00	4.633261e+02
3.552591e+02	3.143397e+00	4.631805e+02
3.557772e+02	3.143397e+00	4.630349e+02
3.562953e+02	3.143397e+00	4.628895e+02
3.568135e+02	3.143397e+00	4.627442e+02
3.573316e+02	3.143397e+00	4.625990e+02
3.578497e+02	3.143397e+00	4.624540e+02
3.583679e+02	3.143397e+00	4.623091e+02
3.588860e+02	3.143397e+00	4.621643e+02
3.594041e+02	3.143397e+00	4.620197e+02
3.599223e+02	3.143397e+00	4.618752e+02
3.604404e+02	3.143397e+00	4.617308e+02
3.609585e+02	3.143397e+00	4.615865e+02
3.614767e+02	3.143397e+00	4.614424e+02
3.619948e+02	3.143397e+00	4.612984e+02
3.625130e+02	3.143397e+00	4.611545e+02
3.630311e+02	3.143397e+00	4.610108e+02
3.635492e+02	3.143397e+00	4.608672e+02
3.640674e+02	3.143397e+00	4.607237e+02
3.645855e+02	3.143397e+00	4.605804e+02
3.651036e+02	3.143397e+00	4.604371e+02
3.656218e+02	3.143397e+00	4.602940e+02
3.661399e+02	3.143397e+00	4.601510e+02
3.666580e+02	3.143397e+00	4.600082e+02
3.671762e+02	3.143397e+00	4.598655e+02
3.676943e+02	3.143397e+00	4.597229e+02
3.682124e+02	3.143397e+00	4.595804e+02
3.687306e+02	3.143397e+00	4.594381e+02
3.692487e+02	3.143397e+00	4.592959e+02
3.697668e+02	3.143397e+00	4.591538e+02
3.702850e+02	3.143397e+00	4.590118e+02
3.708031e+02	3.143397e+00	4.588700e+02
3.713212e+02	3.143397e+00	4.587283e+02
3.718394e+02	3.143397e+00	4.585867e+02
3.723575e+02	3.143397e+00	4.584453e+02
3.728756e+02	3.143397e+00	4.583040e+02
3.733938e+02	3.143397e+00	4.581628e+02
3.739119e+02	3.143397e+00	4.580217e+02
3.744301e+02	3.143397e+00	4.578808e+02
3.749482e+02	3.143397e+00	4.577399e+02
3.754663e+02	3.143397e+00	4.575992e+02
3.759845e+02	3.143397e+00	4.574587e+02
3.765026e+02	3.143397e+00	4.573182e+02
3.770207e+02	3.143397e+00	4.571779e+02
3.775389e+02	3.143397e+00	4.570377e+02
3.780570e+02	3.143397e+00	4.568977e+02
3.785751e+02	3.143397e+00	4.567577e+02
3.790933e+02	3.143397e+00	4.566179e+02
3.796114e+02	3.143397e+00	4.564782e+02
3.801295e+02	3.143397e+00	4.563386e+02
3.806477e+02	3.143397e+00	4.561992e+02
3.811658e+02	3.143397e+00	4.560599e+02
3.816839e+02	3.143397e+00	4.559207e+02
3.822021e+02	3.143397e+00	4.557816e+02
3.827202e+02	3.143397e+00	4.556427e+02
3.832383e+02	3.143397e+00	4.555038e+02
3.837565e+02	3.143397e+00	4.553652e+02
3.842746e+02	3.143397e+00	4.552266e+02
3.847927e+02	3.143397e+00	4.550881e+02
3.853109e+02	3.143397e+00	4.549498e+02
3.858290e+02	3.143397e+00	4.548116e+02
3.863472e+02	3.143397e+00	4.546735e+02
3.868653e+02	3.143397e+00	4.545356e+02
3.873834e+02	3.143397e+00	4.543977e+02
3.879016e+02	3.143397e+00	4.542600e+02
3.884197e+02	3.143397e+00	4.541224e+02
3.889378e+02	3.143397e+00	4.539850e+02
3.894560e+02	3.143397e+00	4.538476e+02
3.899741e+02	3.143397e+00	4.537104e+02
3.904922e+02	3.143397e+00	4.535733e+02
3.910104e+02	3.143397e+00	4.534363e+02
3.915285e+02	3.143397e+00	4.532995e+02
3.920466e+02	3.143397e+00	4.531628e+02
3.925648e+02	3.143397e+00	4.530261e+02
3.930829e+02	3.143397e+00	4.528897e+02
3.936010e+02	3.143397e+00	4.527533e+02
3.941192e+02	3.143397e+00	4.526171e+02
3.946373e+02	3.143397e+00	4.524809e+02
3.951554e+02	3.143397e+00	4.523449e+02
3.956736e+02	3.143397e+00	4.522091e+02
3.961917e+02	3.143397e+00	4.520733e+02
3.967098e+02	3.143397e+00	4.519377e+02
3.972280e+02	3.143397e+00	4.518022e+02
3.977461e+02	3.143397e+00	4.516668e+02
3.982642e+02	3.143397e+00	4.515315e+02
3.987824e+02	3.143397e+00	4.513963e+02
3.993005e+02	3.143397e+00	4.512613e+02
3.998187e+02	3.143397e+00	4.511264e+02
4.003368e+02	3.143397e+00	4.509916e+02
4.008549e+02	3.143397e+00	4.508569e+02
4.013731e+02	3.143397e+00	4.507224e+02
4.018912e+02	3.143397e+00	4.505880e+02
4.024093e+02	3.143397e+00	4.504536e+02
4.029275e+02	3.143397e+00	4.503195e+02
4.034456e+02	3.143397e+00	4.501854e+02
4.039637e+02	3.143397e+00	4.500514e+02
4.044819e+02	3.143397e+00	4.499176e+02
4.050000e+02	3.143397e+00	4.497839e+02
4.055181e+02	3.143397e+00	4.496503e+02
4.060363e+02	3.143397e+00	4.495168e+02
4.065544e+02	3.143397e+00	4.493835e+02
4.070725e+02	3.143397e+00	4.492502e+02
4.075907e+02	3.143397e+00	4.491171e+02
4.081088e+02	3.143397e+00	4.489841e+02
4.086269e+02	3.143397e+00	4.488513e+02
4.091451e+02	3.143397e+00	4.487185e+02
4.096632e+02	3.143397e+00	4.485859e+02
4.101813e+02	3.143397e+00	4.484533e+02
4.106995e+02	3.143397e+00	4.483209e+02
4.112176e+02	3.143397e+00	4.481886e+02
4.117358e+02	3.143397e+00	4.480565e+02
4.122539e+02	3.143397e+00	4.479244e+02
4.127720e+02	3.143397e+00	4.477925e+02
4.132902e+02	3.143397e+00	4.476607e+02
4.138083e+02	3.143397e+00	4.475290e+02
4.143264e+02	3.143397e+00	4.473974e+02
4.148446e+02	3.143397e+00	4.472659e+02
4.153627e+02	3.143397e+00	4.471346e+02
4.158808e+02	3.143397e+00	4.470034e+02
4.163990e+02	3.143397e+00	4.468723e+02
4.169171e+02	3.143397e+00	4.467413e+02
4.174352e+02	3.143397e+00	4.466104e+02
4.179534e+02	3.143397e+00	4.464796e+02
4.184715e+02	3.143397e+00	4.463490e+02
4.189896e+02	3.143397e+00	4.462185e+02
4.195078e+02	3.143397e+00	4.460881e+02
4.200259e+02	3.143397e+00	4.459578e+02
4.205440e+02	3.143397e+00	4.458276e+02
4.210622e+02	3.143397e+00	4.456975e+02
4.215803e+02	3.143397e+00	4.455676e+02
4.220984e+02	3.143397e+00	4.454378e+02
4.226166e+02	3.143397e+00	4.453080e+02
4.231347e+02	3.143397e+00	4.451784e+02
4.236528e+02	3.143397e+00	4.450490e+02
4.241710e+02	3.143397e+00	4.449196e+02
4.246891e+02	3.143397e+00	4.447903e+02
4.252073e+02	3.143397e+00	4.446612e+02
4.257254e+02	3.143397e+00	4.445322e+02
4.262435e+02	3.143397e+00	4.444033e+02
4.267617e+02	3.143397e+00	4.442745e+02
4.272798e+02	3.143397e+00	4.441458e+02
4.277979e+02	3.143397e+00	4.440173e+02
4.283161e+02	3.143397e+00	4.438888e+02
4.288342e+02	3.143397e+00	4.437605e+02
4.293523e+02	3.143397e+00	4.436323e+02
4.298705e+02	3.143397e+00	4.435042e+02
4.303886e+02	3.143397e+00	4.433762e+02
4.309067e+02	3.143397e+00	4.432483e+02
4.314249e+02	3.143397e+00	4.431206e+02
4.319430e+02	3.143397e+00	4.429929e+02
4.324611e+02	3.143397e+00	4.428654e+02
4.329793e+02	3.143397e+00	4.427380e+02
4.334974e+02	3.143397e+00	4.426107e+02
4.340155e+02	3.143397e+00	4.424835e+02
4.345337e+02	3.143397e+00	4.423564e+02
4.350518e+02	3.143397e+00	4.422294e+02
4.355699e+02	3.143397e+00	4.421026e+02
4.360881e+02	3.143397e+00	4.419759e+02
4.366062e+02	3.143397e+00	4.418492e+02