  # Source : cellZone bedOfSpheres
# Cells  : 12131
# Time	sum(V)	volAverage(T)
4.021803e+01	5.221114e-01	5.998934e+02
4.073781e+01	5.221114e-01	5.996237e+02
4.125759e+01	5.221114e-01	5.993529e+02
4.177737e+01	5.221114e-01	5.990816e+02
4.229715e+01	5.221114e-01	5.988102e+02
4.281693e+01	5.221114e-01	5.985387e+02
4.333671e+01	5.221114e-01	5.982673e+02
4.385648e+01	5.221114e-01	5.979961e+02
4.437626e+01	5.221114e-01	5.977251e+02
4.489604e+01	5.221114e-01	5.974542e+02
4.541451e+01	5.221114e-01	5.971843e+02
4.593264e+01	5.221114e-01	5.969149e+02
4.645078e+01	5.221114e-01	5.966457e+02
4.696891e+01	5.221114e-01	5.963768e+02
4.748705e+01	5.221114e-01	5.961083e+02
4.800518e+01	5.221114e-01	5.958400e+02
4.852332e+01	5.221114e-01	5.955721e+02
4.904145e+01	5.221114e-01	5.953044e+02
4.955959e+01	5.221114e-01	5.950371e+02
5.007772e+01	5.221114e-01	5.947702e+02
5.059585e+01	5.221114e-01	5.945035e+02
5.111399e+01	5.221114e-01	5.942372e+02
5.163212e+01	5.221114e-01	5.939712e+02
5.215026e+01	5.221114e-01	5.937055e+02
5.266839e+01	5.221114e-01	5.934401e+02
5.318653e+01	5.221114e-01	5.931751e+02
5.370466e+01	5.221114e-01	5.929104e+02
5.422280e+01	5.221114e-01	5.926460e+02
5.474093e+01	5.221114e-01	5.923819e+02
5.525907e+01	5.221114e-01	5.921181e+02
5.577720e+01	5.221114e-01	5.918546e+02
5.629534e+01	5.221114e-01	5.915915e+02
5.681347e+01	5.221114e-01	5.913286e+02
5.733161e+01	5.221114e-01	5.910661e+02
5.784974e+01	5.221114e-01	5.908038e+02
5.836788e+01	5.221114e-01	5.905419e+02
5.888601e+01	5.221114e-01	5.902802e+02
5.940415e+01	5.221114e-01	5.900189e+02
5.992228e+01	5.221114e-01	5.897579e+02
6.044041e+01	5.221114e-01	5.894971e+02
6.095855e+01	5.221114e-01	5.892367e+02
6.147668e+01	5.221114e-01	5.889765e+02
6.199482e+01	5.221114e-01	5.887166e+02
6.251295e+01	5.221114e-01	5.884571e+02
6.303109e+01	5.221114e-01	5.881978e+02
6.354922e+01	5.221114e-01	5.879387e+02
6.406736e+01	5.221114e-01	5.876800e+02
6.458549e+01	5.221114e-01	5.874216e+02
6.510363e+01	5.221114e-01	5.871634e+02
6.562176e+01	5.221114e-01	5.869055e+02
6.613990e+01	5.221114e-01	5.866479e+02
6.665803e+01	5.221114e-01	5.863906e+02
6.717617e+01	5.221114e-01	5.861335e+02
6.769430e+01	5.221114e-01	5.858767e+02
6.821244e+01	5.221114e-01	5.856202e+02
6.873057e+01	5.221114e-01	5.853640e+02
6.924870e+01	5.221114e-01	5.851080e+02
6.976684e+01	5.221114e-01	5.848523e+02
7.028497e+01	5.221114e-01	5.845969e+02
7.080311e+01	5.221114e-01	5.843417e+02
7.132124e+01	5.221114e-01	5.840868e+02
7.183938e+01	5.221114e-01	5.838322e+02
7.235751e+01	5.221114e-01	5.835778e+02
7.287565e+01	5.221114e-01	5.833237e+02
7.339378e+01	5.221114e-01	5.830698e+02
7.391192e+01	5.221114e-01	5.828162e+02
7.443005e+01	5.221114e-01	5.825629e+02
7.494819e+01	5.221114e-01	5.823098e+02
7.546632e+01	5.221114e-01	5.820570e+02
7.598446e+01	5.221114e-01	5.818044e+02
7.650259e+01	5.221114e-01	5.815521e+02
7.702073e+01	5.221114e-01	5.813001e+02
7.753886e+01	5.221114e-01	5.810483e+02
7.805699e+01	5.221114e-01	5.807967e+02
7.857513e+01	5.221114e-01	5.805454e+02
7.909326e+01	5.221114e-01	5.802944e+02
7.961140e+01	5.221114e-01	5.800436e+02
8.012953e+01	5.221114e-01	5.797930e+02
8.064767e+01	5.221114e-01	5.795427e+02
8.116580e+01	5.221114e-01	5.792927e+02
8.168394e+01	5.221114e-01	5.790429e+02
8.220207e+01	5.221114e-01	5.787933e+02
8.272021e+01	5.221114e-01	5.785440e+02
8.323834e+01	5.221114e-01	5.782949e+02
8.375648e+01	5.221114e-01	5.780461e+02
8.427461e+01	5.221114e-01	5.777975e+02
8.479275e+01	5.221114e-01	5.775492e+02
8.531088e+01	5.221114e-01	5.773011e+02
8.582902e+01	5.221114e-01	5.770532e+02
8.634715e+01	5.221114e-01	5.768056e+02
8.686528e+01	5.221114e-01	5.765582e+02
8.738342e+01	5.221114e-01	5.763111e+02
8.790155e+01	5.221114e-01	5.760641e+02
8.841969e+01	5.221114e-01	5.758175e+02
8.893782e+01	5.221114e-01	5.755710e+02
8.945596e+01	5.221114e-01	5.753249e+02
8.997409e+01	5.221114e-01	5.750789e+02
9.049223e+01	5.221114e-01	5.748332e+02
9.101036e+01	5.221114e-01	5.745877e+02
9.152850e+01	5.221114e-01	5.743424e+02
9.204663e+01	5.221114e-01	5.740974e+02
9.256477e+01	5.221114e-01	5.738526e+02
9.308290e+01	5.221114e-01	5.736081e+02
9.360104e+01	5.221114e-01	5.733637e+02
9.411917e+01	5.221114e-01	5.731196e+02
9.463731e+01	5.221114e-01	5.728758e+02
9.515544e+01	5.221114e-01	5.726322e+02
9.567358e+01	5.221114e-01	5.723888e+02
9.619171e+01	5.221114e-01	5.721456e+02
9.670984e+01	5.221114e-01	5.719026e+02
9.722798e+01	5.221114e-01	5.716599e+02
9.774611e+01	5.221114e-01	5.714174e+02
9.826425e+01	5.221114e-01	5.711752e+02
9.878238e+01	5.221114e-01	5.709331e+02
9.930052e+01	5.221114e-01	5.706913e+02
9.981865e+01	5.221114e-01	5.704497e+02
1.003368e+02	5.221114e-01	5.702084e+02
1.008549e+02	5.221114e-01	5.699673e+02
1.013731e+02	5.221114e-01	5.697264e+02
1.018912e+02	5.221114e-01	5.694857e+02
1.024093e+02	5.221114e-01	5.692452e+02
1.029275e+02	5.221114e-01	5.690050e+02
1.034456e+02	5.221114e-01	5.687650e+02
1.039637e+02	5.221114e-01	5.685252e+02
1.044819e+02	5.221114e-01	5.682856e+02
1.050000e+02	5.221114e-01	5.680463e+02
1.055181e+02	5.221114e-01	5.678071e+02
1.060363e+02	5.221114e-01	5.675682e+02
1.065544e+02	5.221114e-01	5.673295e+02
1.070725e+02	5.221114e-01	5.670911e+02
1.075907e+02	5.221114e-01	5.668528e+02
1.081088e+02	5.221114e-01	5.666148e+02
1.086269e+02	5.221114e-01	5.663770e+02
1.091451e+02	5.221114e-01	5.661394e+02
1.096632e+02	5.221114e-01	5.659020e+02
1.101813e+02	5.221114e-01	5.656649e+02
1.106995e+02	5.221114e-01	5.654280e+02
1.112176e+02	5.221114e-01	5.651912e+02
1.117358e+02	5.221114e-01	5.649547e+02
1.122539e+02	5.221114e-01	5.647185e+02
1.127720e+02	5.221114e-01	5.644824e+02
1.132902e+02	5.221114e-01	5.642465e+02
1.138083e+02	5.221114e-01	5.640109e+02
1.143264e+02	5.221114e-01	5.637755e+02
1.148446e+02	5.221114e-01	5.635403e+02
1.153627e+02	5.221114e-01	5.633053e+02
1.158808e+02	5.221114e-01	5.630705e+02
1.163990e+02	5.221114e-01	5.628359e+02
1.169171e+02	5.221114e-01	5.626016e+02
1.174352e+02	5.221114e-01	5.623675e+02
1.179534e+02	5.221114e-01	5.621335e+02
1.184715e+02	5.221114e-01	5.618998e+02
1.189896e+02	5.221114e-01	5.616663e+02
1.195078e+02	5.221114e-01	5.614330e+02
1.200259e+02	5.221114e-01	5.611999e+02
1.205440e+02	5.221114e-01	5.609671e+02
1.210622e+02	5.221114e-01	5.607344e+02
1.215803e+02	5.221114e-01	5.605020e+02
1.220984e+02	5.221114e-01	5.602698e+02
1.226166e+02	5.221114e-01	5.600377e+02
1.231347e+02	5.221114e-01	5.598059e+02
1.236528e+02	5.221114e-01	5.595743e+02
1.241710e+02	5.221114e-01	5.593429e+02
1.246891e+02	5.221114e-01	5.591117e+02
1.252073e+02	5.221114e-01	5.588808e+02
1.257254e+02	5.221114e-01	5.586500e+02
1.262435e+02	5.221114e-01	5.584194e+02
1.267617e+02	5.221114e-01	5.581891e+02
1.272798e+02	5.221114e-01	5.579589e+02
1.277979e+02	5.221114e-01	5.577290e+02
1.283161e+02	5.221114e-01	5.574993e+02
1.288342e+02	5.221114e-01	5.572697e+02
1.293523e+02	5.221114e-01	5.570404e+02
1.298705e+02	5.221114e-01	5.568113e+02
1.303886e+02	5.221114e-01	5.565824e+02
1.309067e+02	5.221114e-01	5.563537e+02
1.314249e+02	5.221114e-01	5.561252e+02
1.319430e+02	5.221114e-01	5.558969e+02
1.324611e+02	5.221114e-01	5.556689e+02
1.329793e+02	5.221114e-01	5.554410e+02
1.334974e+02	5.221114e-01	5.552133e+02
1.340155e+02	5.221114e-01	5.549858e+02
1.345337e+02	5.221114e-01	5.547586e+02
1.350518e+02	5.221114e-01	5.545315e+02
1.355699e+02	5.221114e-01	5.543047e+02
1.360881e+02	5.221114e-01	5.540780e+02
1.366062e+02	5.221114e-01	5.538516e+02
1.371244e+02	5.221114e-01	5.536253e+02
1.376425e+02	5.221114e-01	5.533993e+02
1.381606e+02	5.221114e-01	5.531734e+02
1.386788e+02	5.221114e-01	5.529478e+02
1.391969e+02	5.221114e-01	5.527224e+02
1.397150e+02	5.221114e-01	5.524971e+02
1.402332e+02	5.221114e-01	5.522721e+02
1.407513e+02	5.221114e-01	5.520473e+02
1.412694e+02	5.221114e-01	5.518226e+02
1.417876e+02	5.221114e-01	5.515982e+02
1.423057e+02	5.221114e-01	5.513740e+02
1.428238e+02	5.221114e-01	5.511500e+02
1.433420e+02	5.221114e-01	5.509261e+02
1.438601e+02	5.221114e-01	5.507025e+02
1.443782e+02	5.221114e-01	5.504791e+02
1.448964e+02	5.221114e-01	5.502558e+02
1.454145e+02	5.221114e-01	5.500328e+02
1.459326e+02	5.221114e-01	5.498100e+02
1.464508e+02	5.221114e-01	5.495874e+02
1.469689e+02	5.221114e-01	5.493649e+02
1.474870e+02	5.221114e-01	5.491427e+02
1.480052e+02	5.221114e-01	5.489207e+02
1.485233e+02	5.221114e-01	5.486988e+02
1.490415e+02	5.221114e-01	5.484772e+02
1.495596e+02	5.221114e-01	5.482557e+02
1.500777e+02	5.221114e-01	5.480345e+02
1.505959e+02	5.221114e-01	5.478135e+02
1.511140e+02	5.221114e-01	5.475926e+02
1.516321e+02	5.221114e-01	5.473720e+02
1.521503e+02	5.221114e-01	5.471515e+02
1.526684e+02	5.221114e-01	5.469312e+02
1.531865e+02	5.221114e-01	5.467112e+02
1.537047e+02	5.221114e-01	5.464913e+02
1.542228e+02	5.221114e-01	5.462716e+02
1.547409e+02	5.221114e-01	5.460522e+02
1.552591e+02	5.221114e-01	5.458329e+02
1.557772e+02	5.221114e-01	5.456138e+02
1.562953e+02	5.221114e-01	5.453949e+02
1.568135e+02	5.221114e-01	5.451762e+02
1.573316e+02	5.221114e-01	5.449577e+02
1.578497e+02	5.221114e-01	5.447394e+02
1.583679e+02	5.221114e-01	5.445213e+02
1.588860e+02	5.221114e-01	5.443034e+02
1.594041e+02	5.221114e-01	5.440857e+02
1.599223e+02	5.221114e-01	5.438682e+02
1.604404e+02	5.221114e-01	5.436508e+02
1.609585e+02	5.221114e-01	5.434337e+02
1.614767e+02	5.221114e-01	5.432167e+02
1.619948e+02	5.221114e-01	5.430000e+02
1.625130e+02	5.221114e-01	5.427834e+02
1.630311e+02	5.221114e-01	5.425671e+02
1.635492e+02	5.221114e-01	5.423509e+02
1.640674e+02	5.221114e-01	5.421349e+02
1.645855e+02	5.221114e-01	5.419191e+02
1.651036e+02	5.221114e-01	5.417035e+02
1.656218e+02	5.221114e-01	5.414881e+02
1.661399e+02	5.221114e-01	5.412729e+02
1.666580e+02	5.221114e-01	5.410579e+02
1.671762e+02	5.221114e-01	5.408430e+02
1.676943e+02	5.221114e-01	5.406284e+02
1.682124e+02	5.221114e-01	5.404139e+02
1.687306e+02	5.221114e-01	5.401997e+02
1.692487e+02	5.221114e-01	5.399856e+02
1.697668e+02	5.221114e-01	5.397717e+02
1.702850e+02	5.221114e-01	5.395580e+02
1.708031e+02	5.221114e-01	5.393445e+02
1.713212e+02	5.221114e-01	5.391312e+02
1.718394e+02	5.221114e-01	5.389181e+02
1.723575e+02	5.221114e-01	5.387052e+02
1.728756e+02	5.221114e-01	5.384924e+02
1.733938e+02	5.221114e-01	5.382799e+02
1.739119e+02	5.221114e-01	5.380675e+02
1.744301e+02	5.221114e-01	5.378553e+02
1.749482e+02	5.221114e-01	5.376433e+02
1.754663e+02	5.221114e-01	5.374315e+02
1.759845e+02	5.221114e-01	5.372199e+02
1.765026e+02	5.221114e-01	5.370085e+02
1.770207e+02	5.221114e-01	5.367973e+02
1.775389e+02	5.221114e-01	5.365862e+02
1.780570e+02	5.221114e-01	5.363754e+02
1.785751e+02	5.221114e-01	5.361647e+02
1.790933e+02	5.221114e-01	5.359542e+02
1.796114e+02	5.221114e-01	5.357439e+02
1.801295e+02	5.221114e-01	5.355338e+02
1.806477e+02	5.221114e-01	5.353239e+02
1.811658e+02	5.221114e-01	5.351141e+02
1.816839e+02	5.221114e-01	5.349046e+02
1.822021e+02	5.221114e-01	5.346952e+02
1.827202e+02	5.221114e-01	5.344860e+02
1.832383e+02	5.221114e-01	5.342771e+02
1.837565e+02	5.221114e-01	5.340682e+02
1.842746e+02	5.221114e-01	5.338596e+02
1.847927e+02	5.221114e-01	5.336512e+02
1.853109e+02	5.221114e-01	5.334429e+02
1.858290e+02	5.221114e-01	5.332349e+02
1.863472e+02	5.221114e-01	5.330270e+02
1.868653e+02	5.221114e-01	5.328193e+02
1.873834e+02	5.221114e-01	5.326118e+02
1.879016e+02	5.221114e-01	5.324044e+02
1.884197e+02	5.221114e-01	5.321973e+02
1.889378e+02	5.221114e-01	5.319903e+02
1.894560e+02	5.221114e-01	5.317836e+02
1.899741e+02	5.221114e-01	5.315770e+02
1.904922e+02	5.221114e-01	5.313706e+02
1.910104e+02	5.221114e-01	5.311643e+02
1.915285e+02	5.221114e-01	5.309583e+02
1.920466e+02	5.221114e-01	5.307524e+02
1.925648e+02	5.221114e-01	5.305468e+02
1.930829e+02	5.221114e-01	5.303413e+02
1.936010e+02	5.221114e-01	5.301360e+02
1.941192e+02	5.221114e-01	5.299308e+02
1.946373e+02	5.221114e-01	5.297259e+02
1.951554e+02	5.221114e-01	5.295211e+02
1.956736e+02	5.221114e-01	5.293165e+02
1.961917e+02	5.221114e-01	5.291121e+02
1.967098e+02	5.221114e-01	5.289079e+02
1.972280e+02	5.221114e-01	5.287039e+02
1.977461e+02	5.221114e-01	5.285000e+02
1.982642e+02	5.221114e-01	5.282963e+02
1.987824e+02	5.221114e-01	5.280928e+02
1.993005e+02	5.221114e-01	5.278895e+02
1.998187e+02	5.221114e-01	5.276864e+02
2.003368e+02	5.221114e-01	5.274834e+02
2.008549e+02	5.221114e-01	5.272807e+02
2.013731e+02	5.221114e-01	5.270781e+02
2.018912e+02	5.221114e-01	5.268757e+02
2.024093e+02	5.221114e-01	5.266734e+02
2.029275e+02	5.221114e-01	5.264714e+02
2.034456e+02	5.221114e-01	5.262695e+02
2.039637e+02	5.221114e-01	5.260678e+02
2.044819e+02	5.221114e-01	5.258663e+02
2.050000e+02	5.221114e-01	5.256649e+02
2.055181e+02	5.221114e-01	5.254638e+02
2.060363e+02	5.221114e-01	5.252628e+02
2.065544e+02	5.221114e-01	5.250620e+02
2.070725e+02	5.221114e-01	5.248614e+02
2.075907e+02	5.221114e-01	5.246609e+02
2.081088e+02	5.221114e-01	5.244607e+02
2.086269e+02	5.221114e-01	5.242606e+02
2.091451e+02	5.221114e-01	5.240607e+02
2.096632e+02	5.221114e-01	5.238609e+02
2.101813e+02	5.221114e-01	5.236614e+02
2.106995e+02	5.221114e-01	5.234620e+02
2.112176e+02	5.221114e-01	5.232628e+02
2.117358e+02	5.221114e-01	5.230638e+02
2.122539e+02	5.221114e-01	5.228649e+02
2.127720e+02	5.221114e-01	5.226662e+02
2.132902e+02	5.221114e-01	5.224677e+02
2.138083e+02	5.221114e-01	5.222694e+02
2.143264e+02	5.221114e-01	5.220713e+02
2.148446e+02	5.221114e-01	5.218733e+02
2.153627e+02	5.221114e-01	5.216755e+02
2.158808e+02	5.221114e-01	5.214779e+02
2.163990e+02	5.221114e-01	5.212805e+02
2.169171e+02	5.221114e-01	5.210832e+02
2.174352e+02	5.221114e-01	5.208861e+02
2.179534e+02	5.221114e-01	5.206892e+02
2.184715e+02	5.221114e-01	5.204925e+02
2.189896e+02	5.221114e-01	5.202959e+02
2.195078e+02	5.221114e-01	5.200995e+02
2.200259e+02	5.221114e-01	5.199033e+02
2.205440e+02	5.221114e-01	5.197073e+02
2.210622e+02	5.221114e-01	5.195114e+02
2.215803e+02	5.221114e-01	5.193157e+02
2.220984e+02	5.221114e-01	5.191202e+02
2.226166e+02	5.221114e-01	5.189248e+02
2.231347e+02	5.221114e-01	5.187297e+02
2.236528e+02	5.221114e-01	5.185347e+02
2.241710e+02	5.221114e-01	5.183398e+02
2.246891e+02	5.221114e-01	5.181452e+02
2.252073e+02	5.221114e-01	5.179507e+02
2.257254e+02	5.221114e-01	5.177564e+02
2.262435e+02	5.221114e-01	5.175623e+02
2.267617e+02	5.221114e-01	5.173683e+02
2.272798e+02	5.221114e-01	5.171745e+02
2.277979e+02	5.221114e-01	5.169809e+02
2.283161e+02	5.221114e-01	5.167875e+02
2.288342e+02	5.221114e-01	5.165942e+02
2.293523e+02	5.221114e-01	5.164011e+02
2.298705e+02	5.221114e-01	5.162082e+02
2.303886e+02	5.221114e-01	5.160154e+02
2.309067e+02	5.221114e-01	5.158228e+02
2.314249e+02	5.221114e-01	5.156304e+02
2.319430e+02	5.221114e-01	5.154382e+02
2.324611e+02	5.221114e-01	5.152461e+02
2.329793e+02	5.221114e-01	5.150542e+02
2.334974e+02	5.221114e-01	5.148624e+02
2.340155e+02	5.221114e-01	5.146709e+02
2.345337e+02	5.221114e-01	5.144795e+02
2.350518e+02	5.221114e-01	5.142883e+02
2.355699e+02	5.221114e-01	5.140972e+02
2.360881e+02	5.221114e-01	5.139063e+02
2.366062e+02	5.221114e-01	5.137156e+02
2.371244e+02	5.221114e-01	5.135251e+02
2.376425e+02	5.221114e-01	5.133347e+02
2.381606e+02	5.221114e-01	5.131445e+02
2.386788e+02	5.221114e-01	5.129545e+02
2.391969e+02	5.221114e-01	5.127646e+02
2.397150e+02	5.221114e-01	5.125749e+02
2.402332e+02	5.221114e-01	5.123854e+02
2.407513e+02	5.221114e-01	5.121960e+02
2.412694e+02	5.221114e-01	5.120068e+02
2.417876e+02	5.221114e-01	5.118178e+02
2.423057e+02	5.221114e-01	5.116290e+02
2.428238e+02	5.221114e-01	5.114403e+02
2.433420e+02	5.221114e-01	5.112517e+02
2.438601e+02	5.221114e-01	5.110634e+02
2.443782e+02	5.221114e-01	5.108752e+02
2.448964e+02	5.221114e-01	5.106872e+02
2.454145e+02	5.221114e-01	5.104993e+02
2.459326e+02	5.221114e-01	5.103117e+02
2.464508e+02	5.221114e-01	5.101241e+02
2.469689e+02	5.221114e-01	5.099368e+02
2.474870e+02	5.221114e-01	5.097496e+02
2.480052e+02	5.221114e-01	5.095626e+02
2.485233e+02	5.221114e-01	5.093757e+02
2.490415e+02	5.221114e-01	5.091891e+02
2.495596e+02	5.221114e-01	5.090025e+02
2.500777e+02	5.221114e-01	5.088162e+02
2.505959e+02	5.221114e-01	5.086300e+02
2.511140e+02	5.221114e-01	5.084440e+02
2.516321e+02	5.221114e-01	5.082581e+02
2.521503e+02	5.221114e-01	5.080724e+02
2.526684e+02	5.221114e-01	5.078869e+02
2.531865e+02	5.221114e-01	5.077016e+02
2.537047e+02	5.221114e-01	5.075164e+02
2.542228e+02	5.221114e-01	5.073313e+02
2.547409e+02	5.221114e-01	5.071465e+02
2.552591e+02	5.221114e-01	5.069618e+02
2.557772e+02	5.221114e-01	5.067772e+02
2.562953e+02	5.221114e-01	5.065929e+02
2.568135e+02	5.221114e-01	5.064086e+02
2.573316e+02	5.221114e-01	5.062246e+02
2.578497e+02	5.221114e-01	5.060407e+02
2.583679e+02	5.221114e-01	5.058570e+02
2.588860e+02	5.221114e-01	5.056734e+02
2.594041e+02	5.221114e-01	5.054901e+02
2.599223e+02	5.221114e-01	5.053068e+02
2.604404e+02	5.221114e-01	5.051238e+02
2.609585e+02	5.221114e-01	5.049409e+02
2.614767e+02	5.221114e-01	5.047581e+02
2.619948e+02	5.221114e-01	5.045755e+02
2.625130e+02	5.221114e-01	5.043931e+02
2.630311e+02	5.221114e-01	5.042109e+02
2.635492e+02	5.221114e-01	5.040288e+02
2.640674e+02	5.221114e-01	5.038469e+02
2.645855e+02	5.221114e-01	5.036651e+02
2.651036e+02	5.221114e-01	5.034835e+02
2.656218e+02	5.221114e-01	5.033020e+02
2.661399e+02	5.221114e-01	5.031208e+02
2.666580e+02	5.221114e-01	5.029396e+02
2.671762e+02	5.221114e-01	5.027587e+02
2.676943e+02	5.221114e-01	5.025779e+02
2.682124e+02	5.221114e-01	5.023973e+02
2.687306e+02	5.221114e-01	5.022168e+02
2.692487e+02	5.221114e-01	5.020365e+02
2.697668e+02	5.221114e-01	5.018563e+02
2.702850e+02	5.221114e-01	5.016763e+02
2.708031e+02	5.221114e-01	5.014965e+02
2.713212e+02	5.221114e-01	5.013168e+02
2.718394e+02	5.221114e-01	5.011373e+02
2.723575e+02	5.221114e-01	5.009579e+02
2.728756e+02	5.221114e-01	5.007787e+02
2.733938e+02	5.221114e-01	5.005997e+02
2.739119e+02	5.221114e-01	5.004208e+02
2.744301e+02	5.221114e-01	5.002421e+02
2.749482e+02	5.221114e-01	5.000635e+02
2.754663e+02	5.221114e-01	4.998851e+02
2.759845e+02	5.221114e-01	4.997069e+02
2.765026e+02	5.221114e-01	4.995288e+02
2.770207e+02	5.221114e-01	4.993509e+02
2.775389e+02	5.221114e-01	4.991731e+02
2.780570e+02	5.221114e-01	4.989955e+02
2.785751e+02	5.221114e-01	4.988181e+02
2.790933e+02	5.221114e-01	4.986408e+02
2.796114e+02	5.221114e-01	4.984636e+02
2.801295e+02	5.221114e-01	4.982867e+02
2.806477e+02	5.221114e-01	4.981099e+02
2.811658e+02	5.221114e-01	4.979332e+02
2.816839e+02	5.221114e-01	4.977567e+02
2.822021e+02	5.221114e-01	4.975803e+02
2.827202e+02	5.221114e-01	4.974041e+02
2.832383e+02	5.221114e-01	4.972281e+02
2.837565e+02	5.221114e-01	4.970522e+02
2.842746e+02	5.221114e-01	4.968765e+02
2.847927e+02	5.221114e-01	4.967010e+02
2.853109e+02	5.221114e-01	4.965256e+02
2.858290e+02	5.221114e-01	4.963503e+02
2.863472e+02	5.221114e-01	4.961752e+02
2.868653e+02	5.221114e-01	4.960003e+02
2.873834e+02	5.221114e-01	4.958255e+02
2.879016e+02	5.221114e-01	4.956509e+02
2.884197e+02	5.221114e-01	4.954764e+02
2.889378e+02	5.221114e-01	4.953021e+02
2.894560e+02	5.221114e-01	4.951279e+02
2.899741e+02	5.221114e-01	4.949539e+02
2.904922e+02	5.221114e-01	4.947800e+02
2.910104e+02	5.221114e-01	4.946063e+02
2.915285e+02	5.221114e-01	4.944328e+02
2.920466e+02	5.221114e-01	4.942594e+02
2.925648e+02	5.221114e-01	4.940862e+02
2.930829e+02	5.221114e-01	4.939131e+02
2.936010e+02	5.221114e-01	4.937402e+02
2.941192e+02	5.221114e-01	4.935674e+02
2.946373e+02	5.221114e-01	4.933948e+02
2.951554e+02	5.221114e-01	4.932223e+02
2.956736e+02	5.221114e-01	4.930500e+02
2.961917e+02	5.221114e-01	4.928779e+02
2.967098e+02	5.221114e-01	4.927059e+02
2.972280e+02	5.221114e-01	4.925340e+02
2.977461e+02	5.221114e-01	4.923623e+02
2.982642e+02	5.221114e-01	4.921908e+02
2.987824e+02	5.221114e-01	4.920194e+02
2.993005e+02	5.221114e-01	4.918481e+02
2.998187e+02	5.221114e-01	4.916771e+02
3.003368e+02	5.221114e-01	4.915061e+02
3.008549e+02	5.221114e-01	4.913353e+02
3.013731e+02	5.221114e-01	4.911647e+02
3.018912e+02	5.221114e-01	4.909942e+02
3.024093e+02	5.221114e-01	4.908239e+02
3.029275e+02	5.221114e-01	4.906537e+02
3.034456e+02	5.221114e-01	4.904837e+02
3.039637e+02	5.221114e-01	4.903138e+02
3.044819e+02	5.221114e-01	4.901441e+02
3.050000e+02	5.221114e-01	4.899745e+02
3.055181e+02	5.221114e-01	4.898051e+02
3.060363e+02	5.221114e-01	4.896359e+02
3.065544e+02	5.221114e-01	4.894667e+02
3.070725e+02	5.221114e-01	4.892978e+02
3.075907e+02	5.221114e-01	4.891290e+02
3.081088e+02	5.221114e-01	4.889603e+02
3.086269e+02	5.221114e-01	4.887918e+02
3.091451e+02	5.221114e-01	4.886234e+02
3.096632e+02	5.221114e-01	4.884552e+02
3.101813e+02	5.221114e-01	4.882871e+02
3.106995e+02	5.221114e-01	4.881192e+02
3.112176e+02	5.221114e-01	4.879515e+02
3.117358e+02	5.221114e-01	4.877838e+02
3.122539e+02	5.221114e-01	4.876164e+02
3.127720e+02	5.221114e-01	4.874491e+02
3.132902e+02	5.221114e-01	4.872819e+02
3.138083e+02	5.221114e-01	4.871149e+02
3.143264e+02	5.221114e-01	4.869480e+02
3.148446e+02	5.221114e-01	4.867813e+02
3.153627e+02	5.221114e-01	4.866147e+02
3.158808e+02	5.221114e-01	4.864483e+02
3.163990e+02	5.221114e-01	4.862820e+02
3.169171e+02	5.221114e-01	4.861159e+02
3.174352e+02	5.221114e-01	4.859499e+02
3.179534e+02	5.221114e-01	4.857841e+02
3.184715e+02	5.221114e-01	4.856184e+02
3.189896e+02	5.221114e-01	4.854528e+02
3.195078e+02	5.221114e-01	4.852874e+02
3.200259e+02	5.221114e-01	4.851222e+02
3.205440e+02	5.221114e-01	4.849571e+02
3.210622e+02	5.221114e-01	4.847922e+02
3.215803e+02	5.221114e-01	4.846274e+02
3.220984e+02	5.221114e-01	4.844627e+02
3.226166e+02	5.221114e-01	4.842982e+02
3.231347e+02	5.221114e-01	4.841338e+02
3.236528e+02	5.221114e-01	4.839696e+02
3.241710e+02	5.221114e-01	4.838056e+02
3.246891e+02	5.221114e-01	4.836416e+02
3.252073e+02	5.221114e-01	4.834779e+02
3.257254e+02	5.221114e-01	4.833142e+02
3.262435e+02	5.221114e-01	4.831507e+02
3.267617e+02	5.221114e-01	4.829874e+02
3.272798e+02	5.221114e-01	4.828242e+02
3.277979e+02	5.221114e-01	4.826612e+02
3.283161e+02	5.221114e-01	4.824983e+02
3.288342e+02	5.221114e-01	4.823355e+02
3.293523e+02	5.221114e-01	4.821729e+02
3.298705e+02	5.221114e-01	4.820104e+02
3.303886e+02	5.221114e-01	4.818481e+02
3.309067e+02	5.221114e-01	4.816859e+02
3.314249e+02	5.221114e-01	4.815239e+02
3.319430e+02	5.221114e-01	4.813620e+02
3.324611e+02	5.221114e-01	4.812002e+02
3.329793e+02	5.221114e-01	4.810386e+02
3.334974e+02	5.221114e-01	4.808772e+02
3.340155e+02	5.221114e-01	4.807159e+02
3.345337e+02	5.221114e-01	4.805547e+02
3.350518e+02	5.221114e-01	4.803937e+02
3.355699e+02	5.221114e-01	4.802328e+02
3.360881e+02	5.221114e-01	4.800721e+02
3.366062e+02	5.221114e-01	4.799115e+02
3.371244e+02	5.221114e-01	4.797510e+02
3.376425e+02	5.221114e-01	4.795907e+02
3.381606e+02	5.221114e-01	4.794305e+02
3.386788e+02	5.221114e-01	4.792705e+02
3.391969e+02	5.221114e-01	4.791106e+02
3.397150e+02	5.221114e-01	4.789509e+02
3.402332e+02	5.221114e-01	4.787913e+02
3.407513e+02	5.221114e-01	4.786318e+02
3.412694e+02	5.221114e-01	4.784725e+02
3.417876e+02	5.221114e-01	4.783134e+02
3.423057e+02	5.221114e-01	4.781543e+02
3.428238e+02	5.221114e-01	4.779954e+02
3.433420e+02	5.221114e-01	4.778367e+02
3.438601e+02	5.221114e-01	4.776781e+02
3.443782e+02	5.221114e-01	4.775196e+02
3.448964e+02	5.221114e-01	4.773613e+02
3.454145e+02	5.221114e-01	4.772031e+02
3.459326e+02	5.221114e-01	4.770451e+02
3.464508e+02	5.221114e-01	4.768872e+02
3.469689e+02	5.221114e-01	4.767294e+02
3.474870e+02	5.221114e-01	4.765718e+02
3.480052e+02	5.221114e-01	4.764143e+02
3.485233e+02	5.221114e-01	4.762570e+02
3.490415e+02	5.221114e-01	4.760998e+02
3.495596e+02	5.221114e-01	4.759428e+02
3.500777e+02	5.221114e-01	4.757858e+02
3.505959e+02	5.221114e-01	4.756291e+02
3.511140e+02	5.221114e-01	4.754724e+02
3.516321e+02	5.221114e-01	4.753159e+02
3.521503e+02	5.221114e-01	4.751596e+02
3.526684e+02	5.221114e-01	4.750034e+02
3.531865e+02	5.221114e-01	4.748473e+02
3.537047e+02	5.221114e-01	4.746913e+02
3.542228e+02	5.221114e-01	4.745355e+02
3.547409e+02	5.221114e-01	4.743799e+02
3.552591e+02	5.221114e-01	4.742244e+02
3.557772e+02	5.221114e-01	4.740690e+02
3.562953e+02	5.221114e-01	4.739137e+02
3.568135e+02	5.221114e-01	4.737586e+02
3.573316e+02	5.221114e-01	4.736037e+02
3.578497e+02	5.221114e-01	4.734488e+02
3.583679e+02	5.221114e-01	4.732941e+02
3.588860e+02	5.221114e-01	4.731396e+02
3.594041e+02	5.221114e-01	4.729852e+02
3.599223e+02	5.221114e-01	4.728309e+02
3.604404e+02	5.221114e-01	4.726767e+02
3.609585e+02	5.221114e-01	4.725227e+02
3.614767e+02	5.221114e-01	4.723689e+02
3.619948e+02	5.221114e-01	4.722151e+02
3.625130e+02	5.221114e-01	4.720615e+02
3.630311e+02	5.221114e-01	4.719081e+02
3.635492e+02	5.221114e-01	4.717548e+02
3.640674e+02	5.221114e-01	4.716016e+02
3.645855e+02	5.221114e-01	4.714485e+02
3.651036e+02	5.221114e-01	4.712956e+02
3.656218e+02	5.221114e-01	4.711429e+02
3.661399e+02	5.221114e-01	4.709902e+02
3.666580e+02	5.221114e-01	4.708377e+02
3.671762e+02	5.221114e-01	4.706854e+02
3.676943e+02	5.221114e-01	4.705331e+02
3.682124e+02	5.221114e-01	4.703810e+02
3.687306e+02	5.221114e-01	4.702291e+02
3.692487e+02	5.221114e-01	4.700773e+02
3.697668e+02	5.221114e-01	4.699256e+02
3.702850e+02	5.221114e-01	4.697740e+02
3.708031e+02	5.221114e-01	4.696226e+02
3.713212e+02	5.221114e-01	4.694713e+02
3.718394e+02	5.221114e-01	4.693202e+02
3.723575e+02	5.221114e-01	4.691692e+02
3.728756e+02	5.221114e-01	4.690183e+02
3.733938e+02	5.221114e-01	4.688676e+02
3.739119e+02	5.221114e-01	4.687169e+02
3.744301e+02	5.221114e-01	4.685665e+02
3.749482e+02	5.221114e-01	4.684161e+02
3.754663e+02	5.221114e-01	4.682659e+02
3.759845e+02	5.221114e-01	4.681159e+02
3.765026e+02	5.221114e-01	4.679659e+02
3.770207e+02	5.221114e-01	4.678161e+02
3.775389e+02	5.221114e-01	4.676664e+02
3.780570e+02	5.221114e-01	4.675169e+02
3.785751e+02	5.221114e-01	4.673675e+02
3.790933e+02	5.221114e-01	4.672182e+02
3.796114e+02	5.221114e-01	4.670691e+02
3.801295e+02	5.221114e-01	4.669201e+02
3.806477e+02	5.221114e-01	4.667712e+02
3.811658e+02	5.221114e-01	4.666225e+02
3.816839e+02	5.221114e-01	4.664739e+02
3.822021e+02	5.221114e-01	4.663254e+02
3.827202e+02	5.221114e-01	4.661771e+02
3.832383e+02	5.221114e-01	4.660289e+02
3.837565e+02	5.221114e-01	4.658808e+02
3.842746e+02	5.221114e-01	4.657328e+02
3.847927e+02	5.221114e-01	4.655850e+02
3.853109e+02	5.221114e-01	4.654373e+02
3.858290e+02	5.221114e-01	4.652898e+02
3.863472e+02	5.221114e-01	4.651424e+02
3.868653e+02	5.221114e-01	4.649951e+02
3.873834e+02	5.221114e-01	4.648479e+02
3.879016e+02	5.221114e-01	4.647009e+02
3.884197e+02	5.221114e-01	4.645540e+02
3.889378e+02	5.221114e-01	4.644073e+02
3.894560e+02	5.221114e-01	4.642606e+02
3.899741e+02	5.221114e-01	4.641141e+02
3.904922e+02	5.221114e-01	4.639678e+02
3.910104e+02	5.221114e-01	4.638215e+02
3.915285e+02	5.221114e-01	4.636754e+02
3.920466e+02	5.221114e-01	4.635294e+02
3.925648e+02	5.221114e-01	4.633836e+02
3.930829e+02	5.221114e-01	4.632379e+02
3.936010e+02	5.221114e-01	4.630923e+02
3.941192e+02	5.221114e-01	4.629468e+02
3.946373e+02	5.221114e-01	4.628015e+02
3.951554e+02	5.221114e-01	4.626563e+02
3.956736e+02	5.221114e-01	4.625112e+02
3.961917e+02	5.221114e-01	4.623663e+02
3.967098e+02	5.221114e-01	4.622215e+02
3.972280e+02	5.221114e-01	4.620768e+02
3.977461e+02	5.221114e-01	4.619322e+02
3.982642e+02	5.221114e-01	4.617878e+02
3.987824e+02	5.221114e-01	4.616435e+02
3.993005e+02	5.221114e-01	4.614994e+02
3.998187e+02	5.221114e-01	4.613553e+02
4.003368e+02	5.221114e-01	4.612114e+02
4.008549e+02	5.221114e-01	4.610676e+02
4.013731e+02	5.221114e-01	4.609240e+02
4.018912e+02	5.221114e-01	4.607805e+02
4.024093e+02	5.221114e-01	4.606371e+02
4.029275e+02	5.221114e-01	4.604938e+02
4.034456e+02	5.221114e-01	4.603507e+02
4.039637e+02	5.221114e-01	4.602076e+02
4.044819e+02	5.221114e-01	4.600648e+02
4.050000e+02	5.221114e-01	4.599220e+02
4.055181e+02	5.221114e-01	4.597794e+02
4.060363e+02	5.221114e-01	4.596369e+02
4.065544e+02	5.221114e-01	4.594945e+02
4.070725e+02	5.221114e-01	4.593522e+02
4.075907e+02	5.221114e-01	4.592101e+02
4.081088e+02	5.221114e-01	4.590681e+02
4.086269e+02	5.221114e-01	4.589263e+02
4.091451e+02	5.221114e-01	4.587845e+02
4.096632e+02	5.221114e-01	4.586429e+02
4.101813e+02	5.221114e-01	4.585014e+02
4.106995e+02	5.221114e-01	4.583601e+02
4.112176e+02	5.221114e-01	4.582188e+02
4.117358e+02	5.221114e-01	4.580777e+02
4.122539e+02	5.221114e-01	4.579367e+02
4.127720e+02	5.221114e-01	4.577959e+02
4.132902e+02	5.221114e-01	4.576551e+02
4.138083e+02	5.221114e-01	4.575145e+02
4.143264e+02	5.221114e-01	4.573740e+02
4.148446e+02	5.221114e-01	4.572337e+02
4.153627e+02	5.221114e-01	4.570935e+02
4.158808e+02	5.221114e-01	4.569533e+02
4.163990e+02	5.221114e-01	4.568134e+02
4.169171e+02	5.221114e-01	4.566735e+02
4.174352e+02	5.221114e-01	4.565338e+02
4.179534e+02	5.221114e-01	4.563942e+02
4.184715e+02	5.221114e-01	4.562547e+02
4.189896e+02	5.221114e-01	4.561153e+02
4.195078e+02	5.221114e-01	4.559761e+02
4.200259e+02	5.221114e-01	4.558370e+02
4.205440e+02	5.221114e-01	4.556980e+02
4.210622e+02	5.221114e-01	4.555591e+02
4.215803e+02	5.221114e-01	4.554204e+02
4.220984e+02	5.221114e-01	4.552818e+02
4.226166e+02	5.221114e-01	4.551433e+02
4.231347e+02	5.221114e-01	4.550049e+02
4.236528e+02	5.221114e-01	4.548667e+02
4.241710e+02	5.221114e-01	4.547286e+02
4.246891e+02	5.221114e-01	4.545906e+02
4.252073e+02	5.221114e-01	4.544527e+02
4.257254e+02	5.221114e-01	4.543149e+02
4.262435e+02	5.221114e-01	4.541773e+02
4.267617e+02	5.221114e-01	4.540398e+02
4.272798e+02	5.221114e-01	4.539024e+02
4.277979e+02	5.221114e-01	4.537652e+02
4.283161e+02	5.221114e-01	4.536280e+02
4.288342e+02	5.221114e-01	4.534910e+02
4.293523e+02	5.221114e-01	4.533541e+02
4.298705e+02	5.221114e-01	4.532173e+02
4.303886e+02	5.221114e-01	4.530807e+02
4.309067e+02	5.221114e-01	4.529442e+02
4.314249e+02	5.221114e-01	4.528078e+02
4.319430e+02	5.221114e-01	4.526715e+02
4.324611e+02	5.221114e-01	4.525353e+02
4.329793e+02	5.221114e-01	4.523993e+02
4.334974e+02	5.221114e-01	4.522634e+02
4.340155e+02	5.221114e-01	4.521276e+02
4.345337e+02	5.221114e-01	4.519919e+02
4.350518e+02	5.221114e-01	4.518563e+02
4.355699e+02	5.221114e-01	4.517209e+02
4.360881e+02	5.221114e-01	4.515856e+02
4.366062e+02	5.221114e-01	4.514504e+02
4.371244e+02	5.221114e-01	4.513153e+02