  # Source : patch bedOfSpheres_to_fluid
# Faces  : 2688
# Time	sum(magSf)	areaAverage(T)
4.014062e+01	3.143397e+00	5.980522e+02
4.045312e+01	3.143397e+00	5.967649e+02
4.076562e+01	3.143397e+00	5.958150e+02
4.107812e+01	3.143397e+00	5.950200e+02
4.139062e+01	3.143397e+00	5.943177e+02
4.170312e+01	3.143397e+00	5.936796e+02
4.201562e+01	3.143397e+00	5.930900e+02
4.232812e+01	3.143397e+00	5.925391e+02
4.264062e+01	3.143397e+00	5.920202e+02
4.295312e+01	3.143397e+00	5.915281e+02
4.326562e+01	3.143397e+00	5.910591e+02
4.357812e+01	3.143397e+00	5.906102e+02
4.389062e+01	3.143397e+00	5.901789e+02
4.420312e+01	3.143397e+00	5.897632e+02
4.451562e+01	3.143397e+00	5.893613e+02
4.482812e+01	3.143397e+00	5.889720e+02
4.514062e+01	3.143397e+00	5.885938e+02
4.545312e+01	3.143397e+00	5.882260e+02
4.576562e+01	3.143397e+00	5.878674e+02
4.607812e+01	3.143397e+00	5.875174e+02
4.639062e+01	3.143397e+00	5.871753e+02
4.670312e+01	3.143397e+00	5.868404e+02
4.701562e+01	3.143397e+00	5.865123e+02
4.732812e+01	3.143397e+00	5.861904e+02
4.764062e+01	3.143397e+00	5.858744e+02
4.795312e+01	3.143397e+00	5.855640e+02
4.826562e+01	3.143397e+00	5.852586e+02
4.857812e+01	3.143397e+00	5.849581e+02
4.889062e+01	3.143397e+00	5.846622e+02
4.920312e+01	3.143397e+00	5.843707e+02
4.951562e+01	3.143397e+00	5.840832e+02
4.982812e+01	3.143397e+00	5.837997e+02
5.014062e+01	3.143397e+00	5.835198e+02
5.045312e+01	3.143397e+00	5.832435e+02
5.076562e+01	3.143397e+00	5.829705e+02
5.107812e+01	3.143397e+00	5.827008e+02
5.139062e+01	3.143397e+00	5.824342e+02
5.170312e+01	3.143397e+00	5.821705e+02
5.201562e+01	3.143397e+00	5.819097e+02
5.232812e+01	3.143397e+00	5.816516e+02
5.264062e+01	3.143397e+00	5.813961e+02
5.295312e+01	3.143397e+00	5.811431e+02
5.326562e+01	3.143397e+00	5.808926e+02
5.357812e+01	3.143397e+00	5.806444e+02
5.389062e+01	3.143397e+00	5.803985e+02
5.420312e+01	3.143397e+00	5.801548e+02
5.451562e+01	3.143397e+00	5.799131e+02
5.482812e+01	3.143397e+00	5.796736e+02
5.514062e+01	3.143397e+00	5.794360e+02
5.545312e+01	3.143397e+00	5.792003e+02
5.576562e+01	3.143397e+00	5.789665e+02
5.607812e+01	3.143397e+00	5.787344e+02
5.639062e+01	3.143397e+00	5.785042e+02
5.670312e+01	3.143397e+00	5.782756e+02
5.701562e+01	3.143397e+00	5.780487e+02
5.732812e+01	3.143397e+00	5.778234e+02
5.764062e+01	3.143397e+00	5.775997e+02
5.795312e+01	3.143397e+00	5.773774e+02
5.826562e+01	3.143397e+00	5.771567e+02
5.857812e+01	3.143397e+00	5.769374e+02
5.889062e+01	3.143397e+00	5.767195e+02
5.920312e+01	3.143397e+00	5.765030e+02
5.951562e+01	3.143397e+00	5.762878e+02
5.982812e+01	3.143397e+00	5.760739e+02
6.014062e+01	3.143397e+00	5.758612e+02
6.045312e+01	3.143397e+00	5.756498e+02
6.076562e+01	3.143397e+00	5.754397e+02
6.107812e+01	3.143397e+00	5.752307e+02
6.139062e+01	3.143397e+00	5.750228e+02
6.170312e+01	3.143397e+00	5.748161e+02
6.201562e+01	3.143397e+00	5.746105e+02
6.232812e+01	3.143397e+00	5.744060e+02
6.264062e+01	3.143397e+00	5.742025e+02
6.295312e+01	3.143397e+00	5.740000e+02
6.326562e+01	3.143397e+00	5.737986e+02
6.357812e+01	3.143397e+00	5.735982e+02
6.389062e+01	3.143397e+00	5.733987e+02
6.420312e+01	3.143397e+00	5.732001e+02
6.451562e+01	3.143397e+00	5.730025e+02
6.482812e+01	3.143397e+00	5.728059e+02
6.514062e+01	3.143397e+00	5.726101e+02
6.545312e+01	3.143397e+00	5.724151e+02
6.576562e+01	3.143397e+00	5.722211e+02
6.607812e+01	3.143397e+00	5.720279e+02
6.639062e+01	3.143397e+00	5.718355e+02
6.670312e+01	3.143397e+00	5.716439e+02
6.701562e+01	3.143397e+00	5.714531e+02
6.732812e+01	3.143397e+00	5.712631e+02
6.764062e+01	3.143397e+00	5.710738e+02
6.795312e+01	3.143397e+00	5.708853e+02
6.826562e+01	3.143397e+00	5.706976e+02
6.857812e+01	3.143397e+00	5.705106e+02
6.889062e+01	3.143397e+00	5.703243e+02
6.920312e+01	3.143397e+00	5.701386e+02
6.951562e+01	3.143397e+00	5.699537e+02
6.982812e+01	3.143397e+00	5.697695e+02
7.014062e+01	3.143397e+00	5.695859e+02
7.045312e+01	3.143397e+00	5.694030e+02
7.076562e+01	3.143397e+00	5.692207e+02
7.107812e+01	3.143397e+00	5.690390e+02
7.139062e+01	3.143397e+00	5.688580e+02
7.170312e+01	3.143397e+00	5.686776e+02
7.201562e+01	3.143397e+00	5.684978e+02
7.232812e+01	3.143397e+00	5.683186e+02
7.264062e+01	3.143397e+00	5.681399e+02
7.295312e+01	3.143397e+00	5.679619e+02
7.326562e+01	3.143397e+00	5.677844e+02
7.357812e+01	3.143397e+00	5.676074e+02
7.389062e+01	3.143397e+00	5.674311e+02
7.420312e+01	3.143397e+00	5.672552e+02
7.451562e+01	3.143397e+00	5.670799e+02
7.482812e+01	3.143397e+00	5.669051e+02
7.514062e+01	3.143397e+00	5.667308e+02
7.545312e+01	3.143397e+00	5.665571e+02
7.576562e+01	3.143397e+00	5.663838e+02
7.607812e+01	3.143397e+00	5.662111e+02
7.639062e+01	3.143397e+00	5.660388e+02
7.670312e+01	3.143397e+00	5.658670e+02
7.701562e+01	3.143397e+00	5.656957e+02
7.732812e+01	3.143397e+00	5.655249e+02
7.764062e+01	3.143397e+00	5.653545e+02
7.795312e+01	3.143397e+00	5.651845e+02
7.826562e+01	3.143397e+00	5.650151e+02
7.857812e+01	3.143397e+00	5.648460e+02
7.889062e+01	3.143397e+00	5.646774e+02
7.920312e+01	3.143397e+00	5.645093e+02
7.951562e+01	3.143397e+00	5.643415e+02
7.982812e+01	3.143397e+00	5.641742e+02
8.014062e+01	3.143397e+00	5.640073e+02
8.045312e+01	3.143397e+00	5.638408e+02
8.076562e+01	3.143397e+00	5.636748e+02
8.107812e+01	3.143397e+00	5.635091e+02
8.139062e+01	3.143397e+00	5.633438e+02
8.170312e+01	3.143397e+00	5.631790e+02
8.201562e+01	3.143397e+00	5.630145e+02
8.232812e+01	3.143397e+00	5.628505e+02
8.264062e+01	3.143397e+00	5.626867e+02
8.295312e+01	3.143397e+00	5.625234e+02
8.326562e+01	3.143397e+00	5.623605e+02
8.357812e+01	3.143397e+00	5.621979e+02
8.389062e+01	3.143397e+00	5.620356e+02
8.420312e+01	3.143397e+00	5.618738e+02
8.451562e+01	3.143397e+00	5.617122e+02
8.482812e+01	3.143397e+00	5.615511e+02
8.514062e+01	3.143397e+00	5.613903e+02
8.545312e+01	3.143397e+00	5.612298e+02
8.576562e+01	3.143397e+00	5.610696e+02
8.607812e+01	3.143397e+00	5.609098e+02
8.639062e+01	3.143397e+00	5.607503e+02
8.670312e+01	3.143397e+00	5.605911e+02
8.701562e+01	3.143397e+00	5.604323e+02
8.732812e+01	3.143397e+00	5.602738e+02
8.764062e+01	3.143397e+00	5.601155e+02
8.795312e+01	3.143397e+00	5.599576e+02
8.826562e+01	3.143397e+00	5.598000e+02
8.857812e+01	3.143397e+00	5.596426e+02
8.889062e+01	3.143397e+00	5.594856e+02
8.920312e+01	3.143397e+00	5.593289e+02
8.951562e+01	3.143397e+00	5.591724e+02
8.982812e+01	3.143397e+00	5.590163e+02
9.014062e+01	3.143397e+00	5.588604e+02
9.045312e+01	3.143397e+00	5.587048e+02
9.076562e+01	3.143397e+00	5.585495e+02
9.107812e+01	3.143397e+00	5.583945e+02
9.139062e+01	3.143397e+00	5.582397e+02
9.170312e+01	3.143397e+00	5.580853e+02
9.201562e+01	3.143397e+00	5.579310e+02
9.232812e+01	3.143397e+00	5.577771e+02
9.264062e+01	3.143397e+00	5.576234e+02
9.295312e+01	3.143397e+00	5.574700e+02
9.326562e+01	3.143397e+00	5.573168e+02
9.357812e+01	3.143397e+00	5.571639e+02
9.389062e+01	3.143397e+00	5.570113e+02
9.420312e+01	3.143397e+00	5.568589e+02
9.451562e+01	3.143397e+00	5.567067e+02
9.482812e+01	3.143397e+00	5.565548e+02
9.514062e+01	3.143397e+00	5.564031e+02
9.545312e+01	3.143397e+00	5.562517e+02
9.576562e+01	3.143397e+00	5.561005e+02
9.607812e+01	3.143397e+00	5.559496e+02
9.639062e+01	3.143397e+00	5.557989e+02
9.670312e+01	3.143397e+00	5.556484e+02
9.701562e+01	3.143397e+00	5.554982e+02
9.732812e+01	3.143397e+00	5.553482e+02
9.764062e+01	3.143397e+00	5.551984e+02
9.795312e+01	3.143397e+00	5.550488e+02
9.826562e+01	3.143397e+00	5.548995e+02
9.857812e+01	3.143397e+00	5.547504e+02
9.889062e+01	3.143397e+00	5.546015e+02
9.920312e+01	3.143397e+00	5.544528e+02
9.951562e+01	3.143397e+00	5.543044e+02
9.982812e+01	3.143397e+00	5.541561e+02
1.001406e+02	3.143397e+00	5.540081e+02
1.004531e+02	3.143397e+00	5.538603e+02
1.007656e+02	3.143397e+00	5.537126e+02
1.010781e+02	3.143397e+00	5.535652e+02
1.013906e+02	3.143397e+00	5.534180e+02
1.017031e+02	3.143397e+00	5.532710e+02
1.020156e+02	3.143397e+00	5.531242e+02
1.023281e+02	3.143397e+00	5.529776e+02
1.026406e+02	3.143397e+00	5.528312e+02
1.029531e+02	3.143397e+00	5.526850e+02
1.032656e+02	3.143397e+00	5.525390e+02
1.035781e+02	3.143397e+00	5.523932e+02
1.038906e+02	3.143397e+00	5.522476e+02
1.042031e+02	3.143397e+00	5.521022e+02
1.045156e+02	3.143397e+00	5.519569e+02
1.048281e+02	3.143397e+00	5.518119e+02
1.051406e+02	3.143397e+00	5.516670e+02
1.054531e+02	3.143397e+00	5.515223e+02
1.057656e+02	3.143397e+00	5.513778e+02
1.060781e+02	3.143397e+00	5.512335e+02
1.063906e+02	3.143397e+00	5.510894e+02
1.067031e+02	3.143397e+00	5.509454e+02
1.070156e+02	3.143397e+00	5.508016e+02
1.073281e+02	3.143397e+00	5.506580e+02
1.076406e+02	3.143397e+00	5.505146e+02
1.079531e+02	3.143397e+00	5.503713e+02
1.082656e+02	3.143397e+00	5.502282e+02
1.085781e+02	3.143397e+00	5.500853e+02
1.088906e+02	3.143397e+00	5.499426e+02
1.092031e+02	3.143397e+00	5.498000e+02
1.095156e+02	3.143397e+00	5.496576e+02
1.098281e+02	3.143397e+00	5.495154e+02
1.101406e+02	3.143397e+00	5.493733e+02
1.104531e+02	3.143397e+00	5.492314e+02
1.107656e+02	3.143397e+00	5.490896e+02
1.110781e+02	3.143397e+00	5.489481e+02
1.113906e+02	3.143397e+00	5.488066e+02
1.117031e+02	3.143397e+00	5.486654e+02
1.120156e+02	3.143397e+00	5.485243e+02
1.123281e+02	3.143397e+00	5.483833e+02
1.126406e+02	3.143397e+00	5.482425e+02
1.129531e+02	3.143397e+00	5.481019e+02
1.132656e+02	3.143397e+00	5.479614e+02
1.135781e+02	3.143397e+00	5.478211e+02
1.138906e+02	3.143397e+00	5.476809e+02
1.142031e+02	3.143397e+00	5.475409e+02
1.145156e+02	3.143397e+00	5.474010e+02
1.148281e+02	3.143397e+00	5.472613e+02
1.151406e+02	3.143397e+00	5.471217e+02
1.154531e+02	3.143397e+00	5.469823e+02
1.157656e+02	3.143397e+00	5.468430e+02
1.160781e+02	3.143397e+00	5.467038e+02
1.163906e+02	3.143397e+00	5.465648e+02
1.167031e+02	3.143397e+00	5.464260e+02
1.170156e+02	3.143397e+00	5.462873e+02
1.173281e+02	3.143397e+00	5.461487e+02
1.176406e+02	3.143397e+00	5.460103e+02
1.179531e+02	3.143397e+00	5.458720e+02
1.182656e+02	3.143397e+00	5.457339e+02
1.185781e+02	3.143397e+00	5.455958e+02
1.188906e+02	3.143397e+00	5.454580e+02
1.192031e+02	3.143397e+00	5.453202e+02
1.195156e+02	3.143397e+00	5.451826e+02
1.198281e+02	3.143397e+00	5.450452e+02
1.201406e+02	3.143397e+00	5.449078e+02
1.204531e+02	3.143397e+00	5.447706e+02
1.207656e+02	3.143397e+00	5.446336e+02
1.210781e+02	3.143397e+00	5.444966e+02
1.213906e+02	3.143397e+00	5.443598e+02
1.217031e+02	3.143397e+00	5.442232e+02
1.220156e+02	3.143397e+00	5.440866e+02
1.223281e+02	3.143397e+00	5.439502e+02
1.226406e+02	3.143397e+00	5.438139e+02
1.229531e+02	3.143397e+00	5.436778e+02
1.232656e+02	3.143397e+00	5.435418e+02
1.235781e+02	3.143397e+00	5.434058e+02
1.238906e+02	3.143397e+00	5.432701e+02
1.242031e+02	3.143397e+00	5.431344e+02
1.245156e+02	3.143397e+00	5.429989e+02
1.248281e+02	3.143397e+00	5.428635e+02
1.251406e+02	3.143397e+00	5.427282e+02
1.254531e+02	3.143397e+00	5.425930e+02
1.257656e+02	3.143397e+00	5.424580e+02
1.260781e+02	3.143397e+00	5.423231e+02
1.263906e+02	3.143397e+00	5.421883e+02
1.267031e+02	3.143397e+00	5.420536e+02
1.270156e+02	3.143397e+00	5.419190e+02
1.273281e+02	3.143397e+00	5.417846e+02
1.276406e+02	3.143397e+00	5.416503e+02
1.279531e+02	3.143397e+00	5.415160e+02
1.282656e+02	3.143397e+00	5.413820e+02
1.285781e+02	3.143397e+00	5.412480e+02
1.288906e+02	3.143397e+00	5.411141e+02
1.292031e+02	3.143397e+00	5.409804e+02
1.295156e+02	3.143397e+00	5.408467e+02
1.298281e+02	3.143397e+00	5.407132e+02
1.301406e+02	3.143397e+00	5.405798e+02
1.304531e+02	3.143397e+00	5.404465e+02
1.307656e+02	3.143397e+00	5.403133e+02
1.310781e+02	3.143397e+00	5.401803e+02
1.313906e+02	3.143397e+00	5.400473e+02
1.317031e+02	3.143397e+00	5.399145e+02
1.320156e+02	3.143397e+00	5.397817e+02
1.323281e+02	3.143397e+00	5.396491e+02
1.326406e+02	3.143397e+00	5.395166e+02
1.329531e+02	3.143397e+00	5.393842e+02
1.332656e+02	3.143397e+00	5.392518e+02
1.335781e+02	3.143397e+00	5.391196e+02
1.338906e+02	3.143397e+00	5.389876e+02
1.342031e+02	3.143397e+00	5.388556e+02
1.345156e+02	3.143397e+00	5.387237e+02
1.348281e+02	3.143397e+00	5.385919e+02
1.351406e+02	3.143397e+00	5.384603e+02
1.354531e+02	3.143397e+00	5.383287e+02
1.357656e+02	3.143397e+00	5.381972e+02
1.360781e+02	3.143397e+00	5.380659e+02
1.363906e+02	3.143397e+00	5.379346e+02
1.367031e+02	3.143397e+00	5.378035e+02
1.370156e+02	3.143397e+00	5.376724e+02
1.373281e+02	3.143397e+00	5.375415e+02
1.376406e+02	3.143397e+00	5.374107e+02
1.379531e+02	3.143397e+00	5.372799e+02
1.382656e+02	3.143397e+00	5.371493e+02
1.385781e+02	3.143397e+00	5.370187e+02
1.388906e+02	3.143397e+00	5.368883e+02
1.392031e+02	3.143397e+00	5.367580e+02
1.395156e+02	3.143397e+00	5.366277e+02
1.398281e+02	3.143397e+00	5.364976e+02
1.401406e+02	3.143397e+00	5.363675e+02
1.404531e+02	3.143397e+00	5.362376e+02
1.407656e+02	3.143397e+00	5.361077e+02
1.410781e+02	3.143397e+00	5.359780e+02
1.413906e+02	3.143397e+00	5.358483e+02
1.417031e+02	3.143397e+00	5.357188e+02
1.420156e+02	3.143397e+00	5.355893e+02
1.423281e+02	3.143397e+00	5.354600e+02
1.426406e+02	3.143397e+00	5.353307e+02
1.429531e+02	3.143397e+00	5.352015e+02
1.432656e+02	3.143397e+00	5.350724e+02
1.435781e+02	3.143397e+00	5.349434e+02
1.438906e+02	3.143397e+00	5.348146e+02
1.442031e+02	3.143397e+00	5.346858e+02
1.445156e+02	3.143397e+00	5.345571e+02
1.448281e+02	3.143397e+00	5.344284e+02
1.451406e+02	3.143397e+00	5.342999e+02
1.454531e+02	3.143397e+00	5.341715e+02
1.457656e+02	3.143397e+00	5.340432e+02
1.460781e+02	3.143397e+00	5.339149e+02
1.463906e+02	3.143397e+00	5.337868e+02
1.467031e+02	3.143397e+00	5.336587e+02
1.470156e+02	3.143397e+00	5.335308e+02
1.473281e+02	3.143397e+00	5.334029e+02
1.476406e+02	3.143397e+00	5.332751e+02
1.479531e+02	3.143397e+00	5.331474e+02
1.482656e+02	3.143397e+00	5.330198e+02
1.485781e+02	3.143397e+00	5.328923e+02
1.488906e+02	3.143397e+00	5.327648e+02
1.492031e+02	3.143397e+00	5.326375e+02
1.495156e+02	3.143397e+00	5.325103e+02
1.498281e+02	3.143397e+00	5.323831e+02
1.501406e+02	3.143397e+00	5.322560e+02
1.504531e+02	3.143397e+00	5.321290e+02
1.507656e+02	3.143397e+00	5.320021e+02
1.510781e+02	3.143397e+00	5.318753e+02
1.513906e+02	3.143397e+00	5.317486e+02
1.517031e+02	3.143397e+00	5.316220e+02
1.520156e+02	3.143397e+00	5.314954e+02
1.523281e+02	3.143397e+00	5.313689e+02
1.526406e+02	3.143397e+00	5.312426e+02
1.529531e+02	3.143397e+00	5.311163e+02
1.532656e+02	3.143397e+00	5.309900e+02
1.535781e+02	3.143397e+00	5.308639e+02
1.538906e+02	3.143397e+00	5.307379e+02
1.542031e+02	3.143397e+00	5.306119e+02
1.545156e+02	3.143397e+00	5.304861e+02
1.548281e+02	3.143397e+00	5.303603e+02
1.551406e+02	3.143397e+00	5.302346e+02
1.554531e+02	3.143397e+00	5.301089e+02
1.557656e+02	3.143397e+00	5.299834e+02
1.560781e+02	3.143397e+00	5.298580e+02
1.563906e+02	3.143397e+00	5.297326e+02
1.567031e+02	3.143397e+00	5.296073e+02
1.570156e+02	3.143397e+00	5.294821e+02
1.573281e+02	3.143397e+00	5.293570e+02
1.576406e+02	3.143397e+00	5.292319e+02
1.579531e+02	3.143397e+00	5.291070e+02
1.582656e+02	3.143397e+00	5.289821e+02
1.585781e+02	3.143397e+00	5.288573e+02
1.588906e+02	3.143397e+00	5.287326e+02
1.592031e+02	3.143397e+00	5.286080e+02
1.595156e+02	3.143397e+00	5.284834e+02
1.598281e+02	3.143397e+00	5.283589e+02
1.601406e+02	3.143397e+00	5.282345e+02
1.604531e+02	3.143397e+00	5.281102e+02
1.607656e+02	3.143397e+00	5.279860e+02
1.610781e+02	3.143397e+00	5.278619e+02
1.613906e+02	3.143397e+00	5.277378e+02
1.617031e+02	3.143397e+00	5.276138e+02
1.620156e+02	3.143397e+00	5.274899e+02
1.623281e+02	3.143397e+00	5.273660e+02
1.626406e+02	3.143397e+00	5.272423e+02
1.629531e+02	3.143397e+00	5.271186e+02
1.632656e+02	3.143397e+00	5.269950e+02
1.635781e+02	3.143397e+00	5.268715e+02
1.638906e+02	3.143397e+00	5.267481e+02
1.642031e+02	3.143397e+00	5.266247e+02
1.645156e+02	3.143397e+00	5.265014e+02
1.648281e+02	3.143397e+00	5.263782e+02
1.651406e+02	3.143397e+00	5.262551e+02
1.654531e+02	3.143397e+00	5.261320e+02
1.657656e+02	3.143397e+00	5.260090e+02
1.660781e+02	3.143397e+00	5.258861e+02
1.663906e+02	3.143397e+00	5.257633e+02
1.667031e+02	3.143397e+00	5.256406e+02
1.670156e+02	3.143397e+00	5.255179e+02
1.673281e+02	3.143397e+00	5.253953e+02
1.676406e+02	3.143397e+00	5.252728e+02
1.679531e+02	3.143397e+00	5.251504e+02
1.682656e+02	3.143397e+00	5.250280e+02
1.685781e+02	3.143397e+00	5.249057e+02
1.688906e+02	3.143397e+00	5.247835e+02
1.692031e+02	3.143397e+00	5.246613e+02
1.695156e+02	3.143397e+00	5.245393e+02
1.698281e+02	3.143397e+00	5.244173e+02
1.701406e+02	3.143397e+00	5.242954e+02
1.704531e+02	3.143397e+00	5.241735e+02
1.707656e+02	3.143397e+00	5.240518e+02
1.710781e+02	3.143397e+00	5.239301e+02
1.713906e+02	3.143397e+00	5.238085e+02
1.717031e+02	3.143397e+00	5.236869e+02
1.720156e+02	3.143397e+00	5.235655e+02
1.723281e+02	3.143397e+00	5.234441e+02
1.726406e+02	3.143397e+00	5.233227e+02
1.729531e+02	3.143397e+00	5.232015e+02
1.732656e+02	3.143397e+00	5.230803e+02
1.735781e+02	3.143397e+00	5.229592e+02
1.738906e+02	3.143397e+00	5.228382e+02
1.742031e+02	3.143397e+00	5.227172e+02
1.745156e+02	3.143397e+00	5.225964e+02
1.748281e+02	3.143397e+00	5.224756e+02
1.751406e+02	3.143397e+00	5.223548e+02
1.754531e+02	3.143397e+00	5.222342e+02
1.757656e+02	3.143397e+00	5.221136e+02
1.760781e+02	3.143397e+00	5.219931e+02
1.763906e+02	3.143397e+00	5.218726e+02
1.767031e+02	3.143397e+00	5.217522e+02
1.770156e+02	3.143397e+00	5.216319e+02
1.773281e+02	3.143397e+00	5.215117e+02
1.776406e+02	3.143397e+00	5.213915e+02
1.779531e+02	3.143397e+00	5.212715e+02
1.782656e+02	3.143397e+00	5.211514e+02
1.785781e+02	3.143397e+00	5.210315e+02
1.788906e+02	3.143397e+00	5.209116e+02
1.792031e+02	3.143397e+00	5.207918e+02
1.795156e+02	3.143397e+00	5.206721e+02
1.798281e+02	3.143397e+00	5.205524e+02
1.801406e+02	3.143397e+00	5.204328e+02
1.804531e+02	3.143397e+00	5.203133e+02
1.807656e+02	3.143397e+00	5.201939e+02
1.810781e+02	3.143397e+00	5.200745e+02
1.813906e+02	3.143397e+00	5.199552e+02
1.817031e+02	3.143397e+00	5.198360e+02
1.820156e+02	3.143397e+00	5.197168e+02
1.823281e+02	3.143397e+00	5.195977e+02
1.826406e+02	3.143397e+00	5.194787e+02
1.829531e+02	3.143397e+00	5.193597e+02
1.832656e+02	3.143397e+00	5.192408e+02
1.835781e+02	3.143397e+00	5.191220e+02
1.838906e+02	3.143397e+00	5.190033e+02
1.842031e+02	3.143397e+00	5.188846e+02
1.845156e+02	3.143397e+00	5.187660e+02
1.848281e+02	3.143397e+00	5.186474e+02
1.851406e+02	3.143397e+00	5.185290e+02
1.854531e+02	3.143397e+00	5.184106e+02
1.857656e+02	3.143397e+00	5.182922e+02
1.860781e+02	3.143397e+00	5.181740e+02
1.863906e+02	3.143397e+00	5.180558e+02
1.867031e+02	3.143397e+00	5.179376e+02
1.870156e+02	3.143397e+00	5.178196e+02
1.873281e+02	3.143397e+00	5.177016e+02
1.876406e+02	3.143397e+00	5.175837e+02
1.879531e+02	3.143397e+00	5.174658e+02
1.882656e+02	3.143397e+00	5.173480e+02
1.885781e+02	3.143397e+00	5.172303e+02
1.888906e+02	3.143397e+00	5.171127e+02
1.892031e+02	3.143397e+00	5.169951e+02
1.895156e+02	3.143397e+00	5.168776e+02
1.898281e+02	3.143397e+00	5.167601e+02
1.901406e+02	3.143397e+00	5.166427e+02
1.904531e+02	3.143397e+00	5.165254e+02
1.907656e+02	3.143397e+00	5.164082e+02
1.910781e+02	3.143397e+00	5.162910e+02
1.913906e+02	3.143397e+00	5.161739e+02
1.917031e+02	3.143397e+00	5.160569e+02
1.920156e+02	3.143397e+00	5.159399e+02
1.923281e+02	3.143397e+00	5.158230e+02
1.926406e+02	3.143397e+00	5.157061e+02
1.929531e+02	3.143397e+00	5.155894e+02
1.932656e+02	3.143397e+00	5.154726e+02
1.935781e+02	3.143397e+00	5.153560e+02
1.938906e+02	3.143397e+00	5.152394e+02
1.942031e+02	3.143397e+00	5.151229e+02
1.945156e+02	3.143397e+00	5.150065e+02
1.948281e+02	3.143397e+00	5.148901e+02
1.951406e+02	3.143397e+00	5.147738e+02
1.954531e+02	3.143397e+00	5.146576e+02
1.957656e+02	3.143397e+00	5.145414e+02
1.960781e+02	3.143397e+00	5.144253e+02
1.963906e+02	3.143397e+00	5.143092e+02
1.967031e+02	3.143397e+00	5.141933e+02
1.970156e+02	3.143397e+00	5.140773e+02
1.973281e+02	3.143397e+00	5.139615e+02
1.976406e+02	3.143397e+00	5.138457e+02
1.979531e+02	3.143397e+00	5.137300e+02
1.982656e+02	3.143397e+00	5.136144e+02
1.985781e+02	3.143397e+00	5.134988e+02
1.988906e+02	3.143397e+00	5.133833e+02
1.992031e+02	3.143397e+00	5.132678e+02
1.995156e+02	3.143397e+00	5.131524e+02
1.998281e+02	3.143397e+00	5.130371e+02
2.001406e+02	3.143397e+00	5.129218e+02
2.004531e+02	3.143397e+00	5.128066e+02
2.007656e+02	3.143397e+00	5.126915e+02
2.010781e+02	3.143397e+00	5.125765e+02
2.013906e+02	3.143397e+00	5.124615e+02
2.017031e+02	3.143397e+00	5.123465e+02
2.020156e+02	3.143397e+00	5.122317e+02
2.023281e+02	3.143397e+00	5.121169e+02
2.026406e+02	3.143397e+00	5.120021e+02
2.029531e+02	3.143397e+00	5.118875e+02
2.032656e+02	3.143397e+00	5.117728e+02
2.035781e+02	3.143397e+00	5.116583e+02
2.038906e+02	3.143397e+00	5.115438e+02
2.042031e+02	3.143397e+00	5.114294e+02
2.045156e+02	3.143397e+00	5.113151e+02
2.048281e+02	3.143397e+00	5.112008e+02
2.051406e+02	3.143397e+00	5.110865e+02
2.054531e+02	3.143397e+00	5.109724e+02
2.057656e+02	3.143397e+00	5.108583e+02
2.060781e+02	3.143397e+00	5.107443e+02
2.063906e+02	3.143397e+00	5.106303e+02
2.067031e+02	3.143397e+00	5.105164e+02
2.070156e+02	3.143397e+00	5.104025e+02
2.073281e+02	3.143397e+00	5.102888e+02
2.076406e+02	3.143397e+00	5.101751e+02
2.079531e+02	3.143397e+00	5.100614e+02
2.082656e+02	3.143397e+00	5.099478e+02
2.085781e+02	3.143397e+00	5.098343e+02
2.088906e+02	3.143397e+00	5.097208e+02
2.092031e+02	3.143397e+00	5.096074e+02
2.095156e+02	3.143397e+00	5.094941e+02
2.098281e+02	3.143397e+00	5.093808e+02
2.101406e+02	3.143397e+00	5.092676e+02
2.104531e+02	3.143397e+00	5.091545e+02
2.107656e+02	3.143397e+00	5.090414e+02
2.110781e+02	3.143397e+00	5.089284e+02
2.113906e+02	3.143397e+00	5.088154e+02
2.117031e+02	3.143397e+00	5.087025e+02
2.120156e+02	3.143397e+00	5.085897e+02
2.123281e+02	3.143397e+00	5.084770e+02
2.126406e+02	3.143397e+00	5.083642e+02
2.129531e+02	3.143397e+00	5.082516e+02
2.132656e+02	3.143397e+00	5.081390e+02
2.135781e+02	3.143397e+00	5.080265e+02
2.138906e+02	3.143397e+00	5.079141e+02
2.142031e+02	3.143397e+00	5.078017e+02
2.145156e+02	3.143397e+00	5.076893e+02
2.148281e+02	3.143397e+00	5.075771e+02
2.151406e+02	3.143397e+00	5.074649e+02
2.154531e+02	3.143397e+00	5.073527e+02
2.157656e+02	3.143397e+00	5.072406e+02
2.160781e+02	3.143397e+00	5.071286e+02
2.163906e+02	3.143397e+00	5.070167e+02
2.167031e+02	3.143397e+00	5.069048e+02
2.170156e+02	3.143397e+00	5.067929e+02
2.173281e+02	3.143397e+00	5.066812e+02
2.176406e+02	3.143397e+00	5.065695e+02
2.179531e+02	3.143397e+00	5.064578e+02
2.182656e+02	3.143397e+00	5.063462e+02
2.185781e+02	3.143397e+00	5.062347e+02
2.188906e+02	3.143397e+00	5.061233e+02
2.192031e+02	3.143397e+00	5.060119e+02
2.195156e+02	3.143397e+00	5.059005e+02
2.198281e+02	3.143397e+00	5.057892e+02
2.201406e+02	3.143397e+00	5.056780e+02
2.204531e+02	3.143397e+00	5.055669e+02
2.207656e+02	3.143397e+00	5.054558e+02
2.210781e+02	3.143397e+00	5.053447e+02
2.213906e+02	3.143397e+00	5.052338e+02
2.217031e+02	3.143397e+00	5.051229e+02
2.220156e+02	3.143397e+00	5.050120e+02
2.223281e+02	3.143397e+00	5.049012e+02
2.226406e+02	3.143397e+00	5.047905e+02
2.229531e+02	3.143397e+00	5.046798e+02
2.232656e+02	3.143397e+00	5.045692e+02
2.235781e+02	3.143397e+00	5.044587e+02
2.238906e+02	3.143397e+00	5.043482e+02
2.242031e+02	3.143397e+00	5.042378e+02
2.245156e+02	3.143397e+00	5.041274e+02
2.248281e+02	3.143397e+00	5.040171e+02
2.251406e+02	3.143397e+00	5.039069e+02
2.254531e+02	3.143397e+00	5.037967e+02
2.257656e+02	3.143397e+00	5.036866e+02
2.260781e+02	3.143397e+00	5.035765e+02
2.263906e+02	3.143397e+00	5.034665e+02
2.267031e+02	3.143397e+00	5.033566e+02
2.270156e+02	3.143397e+00	5.032467e+02
2.273281e+02	3.143397e+00	5.031369e+02
2.276406e+02	3.143397e+00	5.030272e+02
2.279531e+02	3.143397e+00	5.029175e+02
2.282656e+02	3.143397e+00	5.028078e+02
2.285781e+02	3.143397e+00	5.026983e+02
2.288906e+02	3.143397e+00	5.025887e+02
2.292031e+02	3.143397e+00	5.024793e+02
2.295156e+02	3.143397e+00	5.023699e+02
2.298281e+02	3.143397e+00	5.022606e+02
2.301406e+02	3.143397e+00	5.021513e+02
2.304531e+02	3.143397e+00	5.020421e+02
2.307656e+02	3.143397e+00	5.019329e+02
2.310781e+02	3.143397e+00	5.018238e+02
2.313906e+02	3.143397e+00	5.017148e+02
2.317031e+02	3.143397e+00	5.016058e+02
2.320156e+02	3.143397e+00	5.014969e+02
2.323281e+02	3.143397e+00	5.013880e+02
2.326406e+02	3.143397e+00	5.012792e+02
2.329531e+02	3.143397e+00	5.011705e+02
2.332656e+02	3.143397e+00	5.010618e+02
2.335781e+02	3.143397e+00	5.009532e+02
2.338906e+02	3.143397e+00	5.008447e+02
2.342031e+02	3.143397e+00	5.007362e+02
2.345156e+02	3.143397e+00	5.006277e+02
2.348281e+02	3.143397e+00	5.005193e+02
2.351406e+02	3.143397e+00	5.004110e+02
2.354531e+02	3.143397e+00	5.003027e+02
2.357656e+02	3.143397e+00	5.001945e+02
2.360781e+02	3.143397e+00	5.000864e+02
2.363906e+02	3.143397e+00	4.999783e+02
2.367031e+02	3.143397e+00	4.998703e+02
2.370156e+02	3.143397e+00	4.997623e+02
2.373281e+02	3.143397e+00	4.996544e+02
2.376406e+02	3.143397e+00	4.995466e+02
2.379531e+02	3.143397e+00	4.994388e+02
2.382656e+02	3.143397e+00	4.993310e+02
2.385781e+02	3.143397e+00	4.992234e+02
2.388906e+02	3.143397e+00	4.991158e+02
2.392031e+02	3.143397e+00	4.990082e+02
2.395156e+02	3.143397e+00	4.989007e+02
2.398281e+02	3.143397e+00	4.987933e+02
2.401406e+02	3.143397e+00	4.986859e+02
2.404531e+02	3.143397e+00	4.985786e+02
2.407656e+02	3.143397e+00	4.984713e+02
2.410781e+02	3.143397e+00	4.983641e+02
2.413906e+02	3.143397e+00	4.982570e+02
2.417031e+02	3.143397e+00	4.981499e+02
2.420156e+02	3.143397e+00	4.980429e+02
2.423281e+02	3.143397e+00	4.979359e+02
2.426406e+02	3.143397e+00	4.978290e+02
2.429531e+02	3.143397e+00	4.977221e+02
2.432656e+02	3.143397e+00	4.976153e+02
2.435781e+02	3.143397e+00	4.975086e+02
2.438906e+02	3.143397e+00	4.974019e+02
2.442031e+02	3.143397e+00	4.972953e+02
2.445156e+02	3.143397e+00	4.971887e+02
2.448281e+02	3.143397e+00	4.970822e+02
2.451406e+02	3.143397e+00	4.969758e+02
2.454531e+02	3.143397e+00	4.968694e+02
2.457656e+02	3.143397e+00	4.967631e+02
2.460781e+02	3.143397e+00	4.966568e+02
2.463906e+02	3.143397e+00	4.965506e+02
2.467031e+02	3.143397e+00	4.964444e+02
2.470156e+02	3.143397e+00	4.963383e+02
2.473281e+02	3.143397e+00	4.962323e+02
2.476406e+02	3.143397e+00	4.961263e+02
2.479531e+02	3.143397e+00	4.960204e+02
2.482656e+02	3.143397e+00	4.959145e+02
2.485781e+02	3.143397e+00	4.958087e+02
2.488906e+02	3.143397e+00	4.957029e+02
2.492031e+02	3.143397e+00	4.955973e+02
2.495156e+02	3.143397e+00	4.954916e+02
2.498281e+02	3.143397e+00	4.953860e+02
2.501406e+02	3.143397e+00	4.952805e+02
2.504531e+02	3.143397e+00	4.951750e+02
2.507656e+02	3.143397e+00	4.950696e+02
2.510781e+02	3.143397e+00	4.949643e+02
2.513906e+02	3.143397e+00	4.948590e+02
2.517031e+02	3.143397e+00	4.947538e+02
2.520156e+02	3.143397e+00	4.946486e+02
2.523281e+02	3.143397e+00	4.945435e+02
2.526406e+02	3.143397e+00	4.944384e+02
2.529531e+02	3.143397e+00	4.943334e+02
2.532656e+02	3.143397e+00	4.942284e+02
2.535781e+02	3.143397e+00	4.941236e+02
2.538906e+02	3.143397e+00	4.940187e+02
2.542031e+02	3.143397e+00	4.939139e+02
2.545156e+02	3.143397e+00	4.938092e+02
2.548281e+02	3.143397e+00	4.937045e+02
2.551406e+02	3.143397e+00	4.935999e+02
2.554531e+02	3.143397e+00	4.934954e+02
2.557656e+02	3.143397e+00	4.933909e+02
2.560781e+02	3.143397e+00	4.932865e+02
2.563906e+02	3.143397e+00	4.931821e+02
2.567031e+02	3.143397e+00	4.930778e+02
2.570156e+02	3.143397e+00	4.929735e+02
2.573281e+02	3.143397e+00	4.928693e+02
2.576406e+02	3.143397e+00	4.927651e+02
2.579531e+02	3.143397e+00	4.926610e+02
2.582656e+02	3.143397e+00	4.925570e+02
2.585781e+02	3.143397e+00	4.924530e+02
2.588906e+02	3.143397e+00	4.923491e+02
2.592031e+02	3.143397e+00	4.922452e+02
2.595156e+02	3.143397e+00	4.921414e+02
2.598281e+02	3.143397e+00	4.920376e+02
2.601406e+02	3.143397e+00	4.919339e+02
2.604531e+02	3.143397e+00	4.918303e+02
2.607656e+02	3.143397e+00	4.917267e+02
2.610781e+02	3.143397e+00	4.916231e+02
2.613906e+02	3.143397e+00	4.915197e+02
2.617031e+02	3.143397e+00	4.914162e+02
2.620156e+02	3.143397e+00	4.913129e+02
2.623281e+02	3.143397e+00	4.912096e+02
2.626406e+02	3.143397e+00	4.911063e+02
2.629531e+02	3.143397e+00	4.910031e+02
2.632656e+02	3.143397e+00	4.909000e+02
2.635781e+02	3.143397e+00	4.907969e+02
2.638906e+02	3.143397e+00	4.906939e+02
2.642031e+02	3.143397e+00	4.905909e+02
2.645156e+02	3.143397e+00	4.904880e+02
2.648281e+02	3.143397e+00	4.903851e+02
2.651406e+02	3.143397e+00	4.902823e+02
2.654531e+02	3.143397e+00	4.901796e+02
2.657656e+02	3.143397e+00	4.900769e+02
2.660781e+02	3.143397e+00	4.899742e+02
2.663906e+02	3.143397e+00	4.898716e+02
2.667031e+02	3.143397e+00	4.897691e+02
2.670156e+02	3.143397e+00	4.896666e+02
2.673281e+02	3.143397e+00	4.895642e+02
2.676406e+02	3.143397e+00	4.894619e+02
2.679531e+02	3.143397e+00	4.893596e+02
2.682656e+02	3.143397e+00	4.892573e+02
2.685781e+02	3.143397e+00	4.891551e+02
2.688906e+02	3.143397e+00	4.890530e+02
2.692031e+02	3.143397e+00	4.889509e+02
2.695156e+02	3.143397e+00	4.888489e+02
2.698281e+02	3.143397e+00	4.887469e+02
2.701406e+02	3.143397e+00	4.886450e+02
2.704531e+02	3.143397e+00	4.885431e+02
2.707656e+02	3.143397e+00	4.884413e+02
2.710781e+02	3.143397e+00	4.883395e+02
2.713906e+02	3.143397e+00	4.882378e+02
2.717031e+02	3.143397e+00	4.881362e+02
2.720156e+02	3.143397e+00	4.880346e+02
2.723281e+02	3.143397e+00	4.879331e+02
2.726406e+02	3.143397e+00	4.878316e+02
2.729531e+02	3.143397e+00	4.877302e+02
2.732656e+02	3.143397e+00	4.876288e+02
2.735781e+02	3.143397e+00	4.875275e+02
2.738906e+02	3.143397e+00	4.874262e+02
2.742031e+02	3.143397e+00	4.873250e+02
2.745156e+02	3.143397e+00	4.872239e+02
2.748281e+02	3.143397e+00	4.871228e+02
2.751406e+02	3.143397e+00	4.870218e+02
2.754531e+02	3.143397e+00	4.869208e+02
2.757656e+02	3.143397e+00	4.868198e+02
2.760781e+02	3.143397e+00	4.867190e+02
2.763906e+02	3.143397e+00	4.866181e+02
2.767031e+02	3.143397e+00	4.865174e+02
2.770156e+02	3.143397e+00	4.864167e+02
2.773281e+02	3.143397e+00	4.863160e+02
2.776406e+02	3.143397e+00	4.862154e+02
2.779531e+02	3.143397e+00	4.861149e+02
2.782656e+02	3.143397e+00	4.860144e+02
2.785781e+02	3.143397e+00	4.859139e+02
2.788906e+02	3.143397e+00	4.858135e+02
2.792031e+02	3.143397e+00	4.857132e+02