/*--------------------------------*- C++ -*----------------------------------*\
| =========                 |                                                 |
| \\      /  F ield         | OpenFOAM: The Open Source CFD Toolbox           |
|  \\    /   O peration     | Version:  2.2.2                                 |
|   \\  /    A nd           | Web:      www.OpenFOAM.org                      |
|    \\/     M anipulation  |                                                 |
\*---------------------------------------------------------------------------*/
FoamFile
{
    version     2.0;
    format      ascii;
    class       volScalarField;
    location    "0.922666";
    object      p;
}
// * * * * * * * * * * * * * * * * * * * * * * * * * * * * * * * * * * * * * //

dimensions      [1 -1 -2 0 0 0 0];

internalField   nonuniform List<scalar> 
25373
(
-0.0575162
-0.0428092
-0.0138384
-0.0116112
-0.0427706
-0.0133673
-0.0100837
-0.00672375
-0.0139489
-0.0101182
0.00173329
0.0106864
-0.0584492
-0.0116299
-0.00668584
0.0106143
0.0166274
-0.0268392
-0.0242929
-0.0197734
-0.0164919
-0.0242623
-0.0212236
-0.0159962
-0.0100054
-0.0197019
-0.0158069
-0.00751328
0.000109773
-0.0271335
-0.0165137
-0.0100527
-0.000163138
0.0128625
-0.0241473
-0.019215
-0.0118579
-0.0103751
-0.0192893
0.00141032
0.0258691
0.0445616
-0.0119487
0.0258564
0.0890768
0.111694
-0.0239014
-0.01043
0.0439613
0.111878
0.0694282
-0.0376689
-0.036466
-0.0342142
-0.0332089
-0.0364743
-0.0304145
-0.0254089
-0.0227652
-0.0341688
-0.0253105
-0.0153367
-0.00239405
-0.0376095
-0.0331091
-0.0225032
-0.00200749
-0.00394
-0.0558524
-0.0557664
-0.0542536
-0.05315
-0.0557562
-0.0525649
-0.0487065
-0.0457662
-0.0542117
-0.0486281
-0.0404311
-0.0341392
-0.0559315
-0.0531343
-0.0456038
-0.0337697
-0.0238303
-0.076436
-0.0765369
-0.075646
-0.0750946
-0.0765136
-0.0750636
-0.072859
-0.070521
-0.0756644
-0.0727755
-0.0664499
-0.058585
-0.0765497
-0.0751582
-0.0703389
-0.0584013
-0.0479262
-0.0982205
-0.097928
-0.0981935
-0.099256
-0.0979019
-0.0990444
-0.100831
-0.102057
-0.0982968
-0.100779
-0.101855
-0.098804
-0.0983448
-0.0993615
-0.101997
-0.0986651
-0.092012
-0.116969
-0.115502
-0.118239
-0.122557
-0.115595
-0.121651
-0.131964
-0.141645
-0.118422
-0.132019
-0.15203
-0.167863
-0.117262
-0.122817
-0.141689
-0.167457
-0.17164
-0.122861
-0.117434
-0.1245
-0.135901
-0.117655
-0.130807
-0.160312
-0.187697
-0.124986
-0.160419
-0.214445
-0.276346
-0.123801
-0.137006
-0.186858
-0.274543
-0.0986424
-0.111387
-0.10481
-0.113785
-0.132147
-0.105042
-0.120153
-0.153813
-0.199167
-0.114383
-0.15423
-0.297884
-0.467509
-0.112341
-0.133209
-0.200732
-0.416484
-0.359198
-0.0547204
0.00742183
-0.0586467
-0.0474018
-0.0397763
0.00553402
0.00769857
0.00666075
-0.0590376
-0.0369918
-0.0347306
0.00740518
0.00745201
0.00759729
0.00725665
-0.0512416
-0.0511323
-0.0376938
0.00234223
0.00234683
0.0030519
-0.0364425
-0.0305626
-0.0298599
-8.38242e-05
0.0019467
-0.00212679
0.00500003
-0.0545102
0.00762765
-0.0306647
-0.0367556
-0.0298231
-0.000101393
-0.00212765
0.00203981
0.00509105
-0.0493261
-0.0611619
-0.0401876
0.00824012
0.00624948
0.0071103
-0.0376897
-0.0597455
-0.035012
0.00767838
0.00790318
0.00785507
0.00750882
-0.028315
-0.0155747
-0.0269605
-0.0279963
-0.0263817
-0.0164626
-0.015903
-0.0123859
-0.027316
-0.0264352
-0.0256285
-0.0159688
-0.0157057
-0.0110862
-0.00919767
-0.0276843
-0.0276575
-0.0259343
-0.0217006
-0.0217073
-0.0170082
-0.0270922
-0.0249248
-0.024358
-0.0209922
-0.0206639
-0.0243036
-0.00725104
-0.0284428
-0.0154514
-0.0249373
-0.0272362
-0.0243528
-0.0209694
-0.0243008
-0.0206455
-0.00706453
-0.0283983
-0.0273331
-0.0265113
-0.015839
-0.0162432
-0.0121774
-0.0266764
-0.0276986
-0.025719
-0.0159837
-0.0109469
-0.0155051
-0.00909505
-0.0341163
-0.0329309
-0.0280634
-0.0273124
-0.0320336
-0.0330589
-0.0332444
-0.0323502
-0.0269559
-0.0312988
-0.0334836
-0.0326904
-0.0323672
-0.0319355
-0.0313656
-0.0267755
-0.0268238
-0.0306496
-0.034455
-0.034483
-0.0332655
-0.0284773
-0.0265654
-0.0404275
-0.036135
-0.0333764
-0.0343322
-0.0319398
-0.0343404
-0.0330211
-0.0266185
-0.0285025
-0.0404725
-0.0361204
-0.0343298
-0.0333962
-0.0319595
-0.0274048
-0.0278826
-0.0320024
-0.033237
-0.0328931
-0.0322705
-0.0314076
-0.0269326
-0.0334701
-0.0326503
-0.0319326
-0.0322753
-0.0313033
-0.0443014
-0.0491604
-0.0393999
-0.0398831
-0.0417448
-0.0489016
-0.0486785
-0.0482747
-0.0385584
-0.0406855
-0.0414962
-0.0482039
-0.0481394
-0.0479082
-0.0478278
-0.0405386
-0.0405082
-0.0417252
-0.0496037
-0.0495246
-0.0491877
-0.0409879
-0.0403617
-0.0463622
-0.0492901
-0.048575
-0.0489265
-0.0491335
-0.0441606
-0.04909
-0.0403744
-0.0408832
-0.0462882
-0.0492981
-0.048945
-0.0485489
-0.0491253
-0.0397689
-0.0393802
-0.0416044
-0.0486845
-0.0491064
-0.048327
-0.0406364
-0.0384763
-0.0414344
-0.0483038
-0.0480051
-0.048235
-0.0479025
-0.0594871
-0.0681082
-0.0570446
-0.0571516
-0.0578671
-0.0681263
-0.0674509
-0.0671343
-0.0562375
-0.0574051
-0.0576827
-0.0671613
-0.0673614
-0.0670361
-0.0670417
-0.057939
-0.0578616
-0.0578378
-0.0681133
-0.0681425
-0.0678055
-0.0573998
-0.0571576
-0.0592907
-0.0676852
-0.0672367
-0.0675197
-0.0677951
-0.0594117
-0.0681908
-0.0571962
-0.0573147
-0.0592512
-0.0676791
-0.06755
-0.0672389
-0.0678195
-0.0571674
-0.0571288
-0.0578532
-0.0675922
-0.068336
-0.0672932
-0.0574699
-0.0561894
-0.0576872
-0.0673602
-0.0672529
-0.0676056
-0.0672392
-0.0784624
-0.0896546
-0.0774107
-0.0770321
-0.0772118
-0.0898571
-0.0889507
-0.0887551
-0.0766005
-0.0772026
-0.0773375
-0.0888546
-0.0889361
-0.0891413
-0.0892598
-0.077583
-0.077459
-0.0773235
-0.0893858
-0.0893469
-0.0890013
-0.0769263
-0.0770912
-0.0781697
-0.0889702
-0.0886444
-0.0892427
-0.0899353
-0.0785832
-0.0897352
-0.0771535
-0.0768747
-0.0781588
-0.0889556
-0.0893046
-0.0886439
-0.0899572
-0.0771813
-0.0775515
-0.0773351
-0.0891855
-0.0902038
-0.0890329
-0.0773895
-0.076745
-0.0774811
-0.0890575
-0.0894866
-0.0892258
-0.0895461
-0.0994001
-0.110907
-0.0993106
-0.098313
-0.0985371
-0.111483
-0.110313
-0.110495
-0.0985639
-0.0990198
-0.0993504
-0.110253
-0.110746
-0.111707
-0.112161
-0.0983436
-0.0983717
-0.0980783
-0.11002
-0.109968
-0.10971
-0.0980908
-0.0986615
-0.100132
-0.109756
-0.109967
-0.11106
-0.113187
-0.0994382
-0.111038
-0.0987279
-0.0980539
-0.100118
-0.109806
-0.111143
-0.110004
-0.113251
-0.0985772
-0.0994068
-0.0987107
-0.110596
-0.111658
-0.110765
-0.0992409
-0.0987617
-0.0995352
-0.110589
-0.112044
-0.110952
-0.112477
-0.117393
-0.130514
-0.117986
-0.11677
-0.117483
-0.130619
-0.129656
-0.130124
-0.117465
-0.118899
-0.119677
-0.128955
-0.129937
-0.131038
-0.132113
-0.11557
-0.11556
-0.115652
-0.129609
-0.129597
-0.129919
-0.116533
-0.117803
-0.121437
-0.129312
-0.130078
-0.131924
-0.135432
-0.117563
-0.130635
-0.117952
-0.116604
-0.121549
-0.129353
-0.132001
-0.130121
-0.135542
-0.116951
-0.118242
-0.117714
-0.129747
-0.130847
-0.130293
-0.119223
-0.117675
-0.119983
-0.129072
-0.131225
-0.130406
-0.132615
-0.119459
-0.132028
-0.122077
-0.120509
-0.122258
-0.131749
-0.132147
-0.133635
-0.122635
-0.128721
-0.12786
-0.129645
-0.130737
-0.13387
-0.137748
-0.117109
-0.11723
-0.117094
-0.130481
-0.130533
-0.130939
-0.119718
-0.121284
-0.128159
-0.129978
-0.132345
-0.135214
-0.141351
-0.119899
-0.132182
-0.121501
-0.120005
-0.12845
-0.130019
-0.135249
-0.132444
-0.141537
-0.121171
-0.122801
-0.122929
-0.132204
-0.132176
-0.133955
-0.129752
-0.122983
-0.128085
-0.129697
-0.133605
-0.131356
-0.1385
-0.106215
-0.109548
-0.107931
-0.110542
-0.111734
-0.114893
-0.116566
-0.104264
-0.104421
-0.105099
-0.108095
-0.110172
-0.117619
-0.106675
-0.11041
-0.108454
-0.117925
-0.108712
-0.110348
-0.111219
-0.116261
-0.112498
-0.11742
-0.0246103
-0.0316687
-0.0461242
-0.0363207
-0.0331456
-0.0315178
-0.0352803
-0.016535
-0.0401806
-0.0478751
-0.0345765
-0.0334042
-0.030335
-0.0318633
-0.0270814
-0.0270499
-0.0622391
-0.0395991
-0.0314739
-0.0315063
-0.0294842
-0.0138835
-0.0324469
-0.0910877
-0.038115
-0.0328928
-0.0259937
-0.0210204
0.0206799
-0.067051
-0.103529
-0.0415366
-0.0372739
-0.0115866
-0.00367676
-0.031753
-0.0246174
-0.0459385
-0.0361761
-0.0315208
-0.0331019
-0.0353154
-0.0328326
-0.0138988
-0.0907716
-0.0377357
-0.0258454
-0.0329163
-0.0210261
-0.0156115
-0.0140713
-0.159952
-0.0364598
-0.0226804
-0.0233408
0.0161149
0.0468285
-0.0711283
-0.138649
-0.046928
-0.0313888
0.00426643
0.0200464
-0.0402107
-0.0167173
-0.0477135
-0.0344446
-0.0304145
-0.0332794
-0.0319762
-0.0666875
0.0202227
-0.101983
-0.0413393
-0.0115955
-0.0371825
-0.00398105
-0.0724355
0.0486623
-0.13788
-0.0469863
0.00450612
-0.0318815
0.0198337
-0.00791109
-0.0058548
-0.0744954
-0.0100857
-0.00802713
-0.00761967
0.0143545
-0.0386174
-0.0408916
-0.0461114
-0.0474046
-0.0474911
-0.0468854
-0.0478601
-0.0348061
-0.0419132
-0.044066
-0.0454109
-0.0456533
-0.0452081
-0.0454989
-0.0387833
-0.0386956
-0.0512963
-0.0458903
-0.0460351
-0.0460313
-0.0473232
-0.0332922
-0.0376561
-0.0508789
-0.0400807
-0.0415149
-0.0412497
-0.0429047
-0.02578
-0.0428096
-0.0499158
-0.0357094
-0.0366618
-0.0367099
-0.0365146
-0.0408186
-0.0384815
-0.0459088
-0.0474075
-0.0468753
-0.0475148
-0.0478553
-0.037705
-0.0331053
-0.0504184
-0.0400388
-0.0412087
-0.0415092
-0.0428344
-0.0285722
-0.0282607
-0.050918
-0.0292706
-0.032153
-0.0320015
-0.0326207
-0.0115343
-0.0330202
-0.0448509
-0.0251707
-0.0273427
-0.0234708
-0.0241538
-0.0418086
-0.0346712
-0.0438556
-0.045537
-0.0452173
-0.0457655
-0.0454755
-0.042668
-0.0254856
-0.0493658
-0.0358467
-0.0366456
-0.0368014
-0.0364443
-0.0330882
-0.0106907
-0.0444386
-0.0251689
-0.0235504
-0.0272067
-0.0241254
-0.0163566
-0.0157379
-0.0343286
-0.0187418
-0.0174746
-0.017279
-0.0159576
-0.0558235
-0.0564057
-0.058022
-0.066465
-0.0665845
-0.0660672
-0.0662082
-0.053654
-0.0554471
-0.0561152
-0.0652345
-0.0653133
-0.0646236
-0.0645052
-0.0551208
-0.055022
-0.0574352
-0.0653336
-0.0653572
-0.0653069
-0.0654837
-0.0507196
-0.0510667
-0.0527224
-0.061668
-0.0616993
-0.0608878
-0.0602965
-0.0463918
-0.0461405
-0.0478676
-0.0583188
-0.0584196
-0.0561245
-0.0550585
-0.0564052
-0.0557616
-0.0579221
-0.0665115
-0.0661238
-0.0666492
-0.0662559
-0.051137
-0.0505466
-0.052572
-0.0616339
-0.0609258
-0.0615812
-0.0602797
-0.0414824
-0.041239
-0.0437489
-0.0531825
-0.0512974
-0.0509589
-0.0490479
-0.0351173
-0.0375503
-0.0387634
-0.0448558
-0.0445121
-0.0402588
-0.0402302
-0.0554126
-0.0535856
-0.0560011
-0.0653496
-0.0646989
-0.0654153
-0.0646012
-0.0460848
-0.046214
-0.0476335
-0.0582576
-0.0559102
-0.0582752
-0.0551723
-0.0375004
-0.0346427
-0.0383841
-0.0449251
-0.0406109
-0.0443866
-0.0401521
-0.0273648
-0.0270724
-0.0313315
-0.034862
-0.0340553
-0.0338539
-0.0330856
-0.0763752
-0.0764637
-0.0770907
-0.0884942
-0.0890441
-0.0894487
-0.0900285
-0.0753098
-0.0755287
-0.0757293
-0.0884633
-0.0886784
-0.089724
-0.0898298
-0.0758399
-0.0757144
-0.0765146
-0.08848
-0.0892769
-0.0891639
-0.0903898
-0.0730412
-0.0722444
-0.071919
-0.0877057
-0.0881832
-0.0883332
-0.0883767
-0.0705279
-0.067489
-0.0674826
-0.0864444
-0.0865171
-0.0869657
-0.0858344
-0.0765437
-0.0763998
-0.077104
-0.0886081
-0.0895766
-0.0891953
-0.0901994
-0.0724544
-0.0728895
-0.0719837
-0.0876445
-0.0884584
-0.0880251
-0.088419
-0.0637324
-0.0636269
-0.0610285
-0.0836994
-0.0823455
-0.082094
-0.0795649
-0.058023
-0.0553671
-0.0543784
-0.0772035
-0.0763893
-0.072879
-0.0730843
-0.0757188
-0.0753253
-0.0758288
-0.0886358
-0.0900242
-0.0888242
-0.0900839
-0.0681063
-0.070224
-0.067681
-0.0863383
-0.0872245
-0.0863172
-0.0858868
-0.0550554
-0.0575158
-0.0540094
-0.0770673
-0.0731693
-0.0760983
-0.0731431
-0.0484603
-0.0483123
-0.0487276
-0.0672728
-0.0671729
-0.0666573
-0.0670899
-0.0993122
-0.100154
-0.101592
-0.110786
-0.112575
-0.115021
-0.11778
-0.0997985
-0.101365
-0.102079
-0.113109
-0.113988
-0.119599
-0.120991
-0.100566
-0.100409
-0.102721
-0.11246
-0.116065
-0.115938
-0.121454
-0.102008
-0.101791
-0.103282
-0.117669
-0.12154
-0.124539
-0.129443
-0.102589
-0.100682
-0.101859
-0.122226
-0.123614
-0.131418
-0.132962
-0.10028
-0.0993592
-0.101689
-0.11097
-0.115279
-0.112742
-0.118109
-0.101983
-0.101876
-0.103367
-0.117715
-0.124831
-0.121513
-0.129668
-0.100171
-0.0999974
-0.0988541
-0.12645
-0.132694
-0.132322
-0.13585
-0.0994606
-0.0950325
-0.0934957
-0.130965
-0.13234
-0.134032
-0.134294
-0.101573
-0.0998455
-0.102217
-0.113378
-0.120034
-0.114222
-0.121483
-0.100738
-0.102438
-0.101711
-0.122442
-0.131839
-0.123761
-0.133708
-0.0952858
-0.0991414
-0.0928829
-0.130929
-0.134757
-0.13157
-0.135425
-0.0925968
-0.0922246
-0.0894711
-0.128224
-0.127654
-0.125889
-0.12628
-0.120994
-0.124387
-0.12857
-0.131416
-0.134522
-0.13959
-0.145367
-0.124052
-0.130548
-0.132702
-0.13638
-0.137886
-0.1512
-0.154637
-0.126661
-0.126462
-0.134058
-0.134085
-0.140776
-0.1407
-0.154273
-0.137046
-0.139876
-0.147851
-0.147199
-0.157796
-0.167524
-0.183545
-0.144193
-0.149095
-0.152725
-0.162856
-0.166742
-0.19605
-0.201511
-0.124693
-0.121141
-0.128836
-0.131557
-0.139858
-0.1347
-0.145696
-0.140376
-0.136878
-0.148088
-0.147361
-0.167961
-0.157932
-0.184258
-0.158853
-0.158394
-0.165208
-0.181946
-0.208864
-0.208264
-0.236494
-0.171039
-0.163252
-0.163775
-0.215162
-0.215812
-0.245912
-0.241228
-0.131036
-0.124272
-0.133206
-0.136641
-0.151797
-0.138198
-0.155438
-0.150154
-0.144111
-0.153783
-0.163404
-0.197049
-0.167468
-0.204516
-0.165328
-0.170836
-0.163735
-0.215716
-0.246103
-0.217753
-0.252392
-0.1725
-0.172009
-0.162108
-0.233562
-0.258484
-0.261798
-0.240234
-0.130486
-0.136791
-0.146813
-0.133891
-0.138004
-0.150773
-0.160883
-0.138064
-0.152966
-0.158181
-0.135946
-0.140182
-0.172789
-0.174801
-0.143186
-0.143007
-0.165236
-0.141053
-0.15409
-0.153917
-0.170639
-0.17499
-0.180868
-0.203887
-0.162303
-0.177136
-0.191023
-0.225155
-0.188467
-0.203376
-0.215469
-0.178456
-0.199216
-0.265281
-0.284132
-0.137458
-0.130988
-0.147657
-0.133988
-0.150784
-0.138327
-0.161368
-0.181808
-0.175169
-0.204917
-0.16274
-0.192323
-0.176886
-0.22666
-0.242086
-0.242307
-0.294291
-0.235045
-0.308592
-0.304157
-0.377121
-0.269797
-0.3456
-0.404901
-0.332201
-0.369702
-0.394452
-0.40719
-0.15413
-0.138869
-0.159172
-0.135744
-0.170844
-0.140926
-0.174238
-0.206782
-0.188543
-0.218944
-0.18094
-0.269173
-0.203568
-0.286906
-0.34596
-0.271302
-0.406431
-0.332936
-0.398577
-0.375194
-0.413693
-0.231369
-0.234608
-0.269297
-0.417556
-0.120402
-0.130294
-0.143058
-0.136025
-0.153854
-0.160776
-0.136562
-0.136601
-0.16067
-0.173853
-0.197922
-0.266344
-0.203268
-0.306152
-0.303209
-0.131377
-0.121024
-0.143712
-0.198749
-0.174553
-0.264854
-0.298568
-0.299868
-0.487281
-0.328083
-0.436101
-0.157065
-0.136822
-0.163109
-0.308749
-0.20341
-0.301473
-0.433977
-0.333831
-0.221978
-0.399727
-0.38828
-0.4032
-0.382334
-0.386326
-0.241908
-0.228114
-0.408667
-0.406749
-0.393891
-0.392042
-0.38975
-0.249416
-0.298222
-0.19541
-0.322794
-0.302359
-0.298532
-0.293834
-0.299285
-0.297204
-0.196921
-0.32107
-0.303791
-0.29583
-0.295538
-0.29913
-0.285069
-0.252208
-0.253527
-0.258746
-0.229522
-0.277357
-0.27784
-0.340897
-0.262636
-0.419666
-0.420357
-0.273522
-0.281739
-0.313272
-0.264794
-0.242811
-0.309611
-0.311305
-0.272028
-0.246923
-0.306648
-0.290495
-0.265252
-0.267561
-0.59996
-0.319785
-0.472827
-0.457746
-0.469914
-0.442565
-0.633906
-0.573962
-0.434989
-0.514333
-0.372765
-0.509161
-0.601586
-0.374891
-0.280922
-0.592743
-0.675083
-0.434011
-0.515774
-0.542525
-0.379188
-0.504081
-0.52172
-0.324245
-0.477153
-0.461212
-0.475199
-0.447338
-0.637574
-0.384429
-0.286843
-0.59411
-0.0998545
-0.100431
-0.10165
-0.103619
-0.100483
-0.101237
-0.107714
-0.11037
-0.0985213
-0.0987244
-0.0995018
-0.0983464
-0.102162
-0.105205
-0.112368
-0.100193
-0.0983991
-0.105119
-0.10248
-0.112676
-0.101855
-0.101216
-0.104172
-0.100659
-0.107997
-0.101909
-0.11119
-0.105082
-0.112167
-0.127968
-0.140774
-0.114602
-0.119629
-0.161215
-0.113611
-0.133441
-0.134012
-0.160009
-0.151366
-0.181568
-0.210928
-0.105224
-0.128122
-0.11304
-0.141915
-0.151443
-0.210385
-0.183871
-0.114448
-0.162467
-0.120405
-0.443324
-0.567571
-0.550893
-0.555143
-0.552389
-0.390537
-0.418332
-0.516673
-0.593079
-0.472859
-0.461934
-0.522272
-0.544297
-0.522722
-0.584982
-0.577886
-0.607208
-0.398258
-0.517978
-0.421691
-0.668554
-0.60851
-0.528649
-0.509422
-0.478037
-0.468019
-0.529312
-0.58196
-0.300741
-0.270439
-0.273376
-0.290669
-0.399638
-0.310957
-0.316049
-0.367918
-0.413469
-0.528348
-0.309929
-0.33706
-0.424108
-0.46789
-0.471388
-0.373447
-0.529867
-0.310399
-0.427591
-0.343159
-0.472345
-0.45758
-0.477837
-0.542249
-0.279297
-0.369126
-0.364179
-0.3969
-0.214287
-0.421162
-0.385498
-0.326892
-0.386109
-0.406025
-0.405685
-0.380553
-0.405456
-0.336757
-0.285466
-0.368983
-0.366764
-0.400023
-0.217165
-0.427362
-0.39087
-0.33116
-0.392007
-0.411933
-0.410921
-0.388014
-0.410925
-0.341358
-0.336003
-0.334107
-0.339504
-0.338859
-0.485261
-0.413891
-0.50928
-0.526726
-0.409716
-0.41272
-0.344505
-0.414638
-0.410006
-0.420656
-0.415449
-0.483529
-0.35268
-0.408218
-0.376764
-0.397105
-0.314324
-0.398206
-0.414866
-0.356849
-0.41384
-0.384638
-0.401262
-0.318369
-0.403882
-0.419866
-0.293071
-0.244929
-0.282834
-0.282695
-0.271927
-0.270815
-0.279683
-0.262489
-0.253977
-0.263844
-0.263867
-0.268964
-0.258834
-0.257793
-0.276067
-0.280315
-0.252742
-0.268805
-0.255229
-0.271659
-0.273083
-0.277287
-0.280406
-0.252341
-0.268886
-0.255461
-0.271992
-0.273078
-0.326087
-0.323538
-0.325411
-0.343802
-0.298803
-0.331154
-0.332901
-0.359064
-0.376836
-0.328178
-0.40654
-0.340167
-0.386617
-0.35639
-0.381416
-0.333592
-0.409949
-0.345071
-0.387319
-0.354727
-0.330543
-0.295852
-0.319722
-0.301559
-0.329425
-0.346502
-0.333977
-0.264861
-0.34186
-0.336126
-0.339301
-0.345333
-0.325136
-0.342929
-0.372104
-0.34183
-0.340203
-0.268618
-0.33498
-0.333535
-0.349255
-0.333412
-0.310452
-0.298866
-0.297101
-0.330909
-0.295464
-0.317154
-0.302478
-0.329227
-0.343945
-0.335045
-0.271329
-0.331905
-0.337452
-0.331082
-0.339291
-0.331055
-0.345114
-0.370206
-0.33957
-0.328081
-0.274829
-0.337956
-0.33662
-0.341406
-0.332282
-0.308104
-0.298257
-0.297424
-0.287861
-0.287751
-0.27411
-0.267481
-0.26792
-0.651951
-0.682674
-0.618055
-0.510814
-0.470208
-0.42296
-0.581049
-0.447209
-0.48363
-0.42694
-0.510385
-0.404746
-0.471844
-0.691857
-0.559518
-0.629891
-0.469731
-0.478301
-0.577854
-0.464147
-0.530503
-0.614788
-0.614417
-0.422439
-0.462648
-0.539005
-0.5066
-0.486525
-0.354792
-0.443832
-0.481838
-0.439987
-0.499309
-0.412949
-0.425173
-0.493855
-0.5093
-0.492264
-0.373202
-0.485916
-0.499251
-0.474246
-0.486605
-0.60572
-0.517633
-0.513055
-0.641196
-0.576356
-0.61873
-0.516257
-0.48034
-0.432964
-0.58872
-0.448884
-0.475048
-0.433195
-0.516532
-0.402957
-0.476626
-0.696207
-0.614797
-0.487404
-0.481189
-0.5909
-0.467981
-0.537084
-0.612506
-0.626864
-0.613634
-0.423823
-0.538424
-0.466419
-0.417236
-0.429643
-0.496588
-0.510992
-0.492657
-0.358785
-0.448218
-0.487326
-0.443834
-0.503515
-0.514375
-0.495187
-0.491723
-0.380696
-0.503174
-0.491806
-0.48057
-0.612213
-0.52454
-0.517935
-0.662792
-0.655872
-0.730313
-0.584625
-0.686621
-0.646806
-0.637262
-0.53105
-0.506736
-0.629404
-0.572718
-0.604828
-0.545374
-0.580939
-0.520338
-0.52243
-0.535315
-0.559842
-0.686489
-0.691039
-0.568967
-0.61851
-0.658461
-0.535808
-0.748171
-0.679307
-0.666588
-0.632373
-0.598492
-0.707204
-0.569437
-0.567124
-0.606053
-0.704544
-0.555871
-0.672922
-0.6496
-0.61149
-0.630165
-0.688772
-0.564092
-0.620646
-0.546661
-0.53434
-0.744806
-0.686396
-0.666851
-0.633897
-0.710205
-0.609416
-0.574221
-0.580134
-0.700779
-0.556376
-0.66916
-0.653124
-0.533582
-0.596123
-0.626586
-0.580551
-0.613443
-0.551356
-0.593905
-0.538863
-0.526143
-0.523732
-0.565495
-0.690152
-0.700419
-0.574038
-0.582516
-0.612179
-0.640081
-0.718547
-0.568441
-0.16948
-0.217854
-0.187162
-0.206314
-0.288057
-0.222014
-0.226166
-0.321022
-0.305229
-0.170935
-0.18648
-0.207643
-0.287493
-0.607253
-0.686341
-0.600304
-0.690364
-0.638474
-0.615782
-0.668884
-0.735934
-0.723409
-0.686564
-0.604874
-0.719304
-0.679544
-0.734642
-0.685636
-0.686602
-0.616422
-0.673899
-0.678936
-0.622308
-0.708694
-0.689122
-0.59476
-0.728094
-0.659177
-0.618846
-0.673271
-0.725308
-0.605411
-0.676224
-0.598708
-0.677389
-0.61961
-0.678064
-0.682994
-0.625847
-0.421233
-0.289238
-0.357268
-0.351043
-0.374279
-0.364192
-0.375794
-0.524255
-0.285011
-0.53544
-0.537505
-0.51449
-0.447374
-0.5066
-0.527388
-0.287826
-0.538773
-0.534711
-0.519502
-0.473479
-0.499253
-0.16842
-0.246011
-0.245374
-0.244934
-0.249379
-0.209907
-0.211507
-0.109551
-0.510312
-0.376338
-0.377763
-0.349874
-0.352301
-0.343967
-0.321976
-0.167053
-0.369687
-0.299813
-0.101365
-0.303355
-0.335101
-0.472596
-0.165643
-0.367897
-0.362211
-0.11741
-0.367721
-0.513237
-0.32499
-0.371323
-0.177924
-0.299043
-0.109126
-0.304295
-0.337218
-0.476802
-0.17243
-0.371465
-0.365793
-0.122369
-0.371467
-0.516986
-0.28816
-0.280308
-0.320116
-0.299247
-0.262304
-0.311089
-0.305949
-0.276688
-0.300756
-0.295031
-0.306876
-0.295132
-0.312676
-0.272444
-0.286457
-0.282103
-0.319543
-0.29903
-0.259815
-0.311884
-0.307596
-0.274994
-0.300582
-0.296142
-0.307551
-0.297461
-0.313356
-0.270184
-0.364773
-0.368726
-0.250372
-0.332397
-0.361661
-0.347738
-0.337827
-0.36396
-0.366849
-0.2607
-0.338711
-0.346353
-0.355641
-0.337021
-0.538951
-0.516805
-0.561819
-0.414079
-0.597708
-0.352018
-0.637315
-0.627105
-0.538185
-0.54281
-0.369427
-0.651041
-0.627001
-0.393158
-0.50218
-0.490041
-0.259089
-0.57158
-0.432303
-0.533644
-0.449407
-0.568542
-0.613617
-0.627714
-0.598573
-0.325617
-0.473487
-0.555819
-0.508512
-0.496106
-0.263551
-0.581814
-0.436232
-0.535717
-0.453229
-0.612559
-0.606049
-0.573281
-0.607941
-0.330908
-0.49588
-0.555534
-0.541737
-0.609631
-0.567339
-0.417607
-0.598705
-0.356885
-0.641371
-0.546527
-0.542399
-0.631143
-0.374843
-0.655567
-0.630194
-0.397539
-0.589876
-0.603646
-0.429495
-0.644827
-0.503053
-0.674966
-0.523439
-0.595763
-0.55631
-0.433083
-0.504737
-0.644878
-0.676975
-0.52767
-0.371222
-0.434503
-0.420716
-0.369214
-0.412817
-0.42191
-0.282637
-0.384737
-0.443311
-0.425056
-0.371219
-0.419286
-0.425824
-0.285115
-0.516852
-0.556386
-0.563283
-0.669775
-0.5795
-0.58991
-0.331116
-0.296542
-0.376105
-0.389101
-0.384699
-0.348442
-0.447755
-0.376649
-0.349201
-0.463994
-0.379494
-0.297348
-0.392012
-0.538561
-0.644209
-0.572946
-0.623208
-0.54022
-0.644636
-0.625901
-0.573997
-0.270534
-0.175134
-0.259511
-0.246916
-0.136702
-0.251463
-0.281637
-0.256628
-0.178315
-0.264485
-0.250604
-0.142164
-0.256501
-0.272599
-0.333589
-0.0284582
-0.437457
-0.326862
-0.21355
-0.305888
-0.308761
-0.501712
-0.106733
-0.35582
-0.360862
-0.230304
-0.411983
-0.370568
-0.337871
-0.0297416
-0.437225
-0.325109
-0.242279
-0.305595
-0.304567
-0.504645
-0.110823
-0.363101
-0.362144
-0.413831
-0.24466
-0.370041
-0.317495
-0.341876
-0.348964
-0.367531
-0.271825
-0.366014
-0.259456
-0.373062
-0.362855
-0.42817
-0.327687
-0.256677
-0.470393
-0.377478
-0.373126
-0.35986
-0.426496
-0.327757
-0.252684
-0.472708
-0.375672
-0.34431
-0.316908
-0.351734
-0.370324
-0.369095
-0.27494
-0.261592
-0.273945
-0.283579
-0.331506
-0.339691
-0.276387
-0.2824
-0.334548
-0.340314
-0.401286
-0.405189
-0.409586
-0.419788
-0.423247
-0.427255
-0.406909
-0.410503
-0.41514
-0.424353
-0.427869
-0.431934
-0.358425
-0.3638
-0.366222
-0.360117
-0.365162
-0.367323
-0.439846
-0.441043
-0.445223
-0.447787
-0.448384
-0.452815
-0.41273
-0.424701
-0.428513
-0.478042
-0.479821
-0.486172
-0.416667
-0.428822
-0.43288
-0.475052
-0.480588
-0.486281
-0.409586
-0.414388
-0.419205
-0.432728
-0.439556
-0.443352
-0.411042
-0.417583
-0.423126
-0.437211
-0.443909
-0.447784
-0.247175
-0.243102
-0.238006
-0.405288
-0.410626
-0.414335
-0.432237
-0.433215
-0.436094
-0.408158
-0.414619
-0.418662
-0.433311
-0.434537
-0.4378
-0.304275
-0.30524
-0.303894
-0.364409
-0.36801
-0.370305
-0.304019
-0.303896
-0.303009
-0.30364
-0.304632
-0.303576
-0.367346
-0.371253
-0.373075
-0.301949
-0.301046
-0.299486
-0.298554
-0.29883
-0.297855
-0.281486
-0.273965
-0.271688
-0.271126
-0.268722
-0.265874
-0.284389
-0.276949
-0.275513
-0.272559
-0.270716
-0.268297
-0.489514
-0.492806
-0.498234
-0.473638
-0.489934
-0.498025
-0.639149
-0.649947
-0.66031
-0.638147
-0.646659
-0.653219
-0.555172
-0.587778
-0.597573
-0.606407
-0.618763
-0.630697
-0.448354
-0.44901
-0.454562
-0.621069
-0.630134
-0.642709
-0.636504
-0.657373
-0.668464
-0.629473
-0.643597
-0.654784
-0.488682
-0.491898
-0.49746
-0.487649
-0.506053
-0.514298
-0.62717
-0.636542
-0.648659
-0.559372
-0.595985
-0.605144
-0.449885
-0.45062
-0.456285
-0.619468
-0.62802
-0.640028
-0.656383
-0.66646
-0.674347
-0.644902
-0.65438
-0.665913
-0.602133
-0.613511
-0.619924
-0.66005
-0.699512
-0.711061
-0.664761
-0.683961
-0.691075
-0.696457
-0.75155
-0.774931
-0.659706
-0.66868
-0.676189
-0.653299
-0.660888
-0.671455
-0.640986
-0.652475
-0.664455
-0.615496
-0.626107
-0.634107
-0.658903
-0.697276
-0.70804
-0.489061
-0.484829
-0.486189
-0.446735
-0.469011
-0.476241
-0.459111
-0.468395
-0.473008
-0.498445
-0.493185
-0.494937
-0.461873
-0.482708
-0.48979
-0.463366
-0.474447
-0.479763
-0.5226
-0.527291
-0.535603
-0.529864
-0.53358
-0.541165
-0.430991
-0.433216
-0.436224
-0.509555
-0.519831
-0.529608
-0.506536
-0.519372
-0.528893
-0.402051
-0.405918
-0.410298
-0.420165
-0.423794
-0.427781
-0.407108
-0.410557
-0.41523
-0.424555
-0.428215
-0.43224
-0.368
-0.364327
-0.36671
-0.345228
-0.344998
-0.345441
-0.36691
-0.363666
-0.365887
-0.357597
-0.362671
-0.364975
-0.34509
-0.344486
-0.34478
-0.371085
-0.36745
-0.37018
-0.344101
-0.343686
-0.34394
-0.367326
-0.363902
-0.366246
-0.359884
-0.365037
-0.367059
-0.34294
-0.342125
-0.342448
-0.451134
-0.463336
-0.467622
-0.501473
-0.507769
-0.514481
-0.44784
-0.459083
-0.463459
-0.437219
-0.438848
-0.442909
-0.498657
-0.504454
-0.51144
-0.452274
-0.464335
-0.468737
-0.509758
-0.51615
-0.522992
-0.444624
-0.446039
-0.450279
-0.451009
-0.462364
-0.466902
-0.503778
-0.509364
-0.516407
-0.40596
-0.41617
-0.420335
-0.44527
-0.457685
-0.465353
-0.399935
-0.409853
-0.41219
-0.505812
-0.51376
-0.519223
-0.411291
-0.42231
-0.426503
-0.446118
-0.459361
-0.466601
-0.401432
-0.411837
-0.414595
-0.495757
-0.505076
-0.51007
-0.536726
-0.568041
-0.578103
-0.637487
-0.642005
-0.648083
-0.626248
-0.632782
-0.637212
-0.536037
-0.548763
-0.555534
-0.539439
-0.552711
-0.55968
-0.556147
-0.565539
-0.572115
-0.557464
-0.566315
-0.572869
-0.409864
-0.41397
-0.418631
-0.432536
-0.436851
-0.440718
-0.414965
-0.418805
-0.423522
-0.436619
-0.441467
-0.445579
-0.252729
-0.248869
-0.244047
-0.252772
-0.248981
-0.244187
-0.260469
-0.257097
-0.252908
-0.261652
-0.256494
-0.251571
-0.261665
-0.255612
-0.249811
-0.261516
-0.256366
-0.251402
-0.262839
-0.257063
-0.251609
-0.341275
-0.342268
-0.343233
-0.342719
-0.344464
-0.346602
-0.341932
-0.34359
-0.34569
-0.338412
-0.340744
-0.341974
-0.33974
-0.341929
-0.343081
-0.412364
-0.413597
-0.415089
-0.375523
-0.380664
-0.382687
-0.402065
-0.404637
-0.407151
-0.37582
-0.379664
-0.382179
-0.411109
-0.412964
-0.414682
-0.376533
-0.382532
-0.384742
-0.403884
-0.406536
-0.409532
-0.378395
-0.381652
-0.384192
-0.348592
-0.356
-0.359352
-0.365892
-0.368527
-0.369935
-0.366423
-0.369015
-0.370496
-0.336707
-0.338724
-0.340852
-0.325974
-0.32768
-0.326718
-0.333016
-0.334129
-0.334683
-0.338861
-0.341452
-0.343031
-0.310994
-0.311335
-0.310368
-0.32668
-0.329789
-0.330245
-0.338363
-0.341334
-0.34347
-0.336584
-0.338912
-0.340717
-0.378551
-0.374646
-0.376429
-0.38036
-0.378575
-0.379267
-0.346335
-0.34647
-0.347408
-0.36253
-0.367751
-0.370236
-0.366709
-0.370899
-0.371698
-0.353298
-0.357895
-0.361145
-0.295963
-0.295477
-0.294189
-0.306235
-0.306434
-0.305653
-0.301332
-0.301059
-0.300112
-0.331048
-0.33279
-0.333712
-0.330907
-0.331687
-0.331823
-0.333683
-0.334956
-0.335589
-0.336124
-0.338806
-0.340055
-0.31034
-0.310731
-0.30999
-0.327362
-0.330071
-0.33076
-0.339861
-0.34367
-0.34674
-0.333892
-0.335293
-0.336275
-0.380107
-0.377354
-0.379943
-0.378866
-0.377513
-0.378615
-0.343251
-0.342713
-0.343144
-0.364074
-0.369357
-0.371464
-0.365054
-0.369801
-0.370979
-0.355225
-0.357549
-0.36012
-0.300139
-0.298409
-0.29668
-0.304856
-0.304932
-0.30426
-0.304752
-0.304589
-0.304477
-0.271806
-0.26698
-0.262682
-0.289868
-0.288157
-0.285956
-0.289811
-0.288009
-0.285804
-0.285689
-0.279221
-0.278645
-0.286477
-0.280101
-0.279531
-0.291339
-0.284502
-0.283038
-0.271394
-0.26854
-0.265816
-0.289876
-0.282945
-0.281279
-0.272358
-0.2697
-0.267288
-0.610699
-0.627308
-0.638154
-0.633247
-0.647139
-0.658972
-0.636057
-0.658554
-0.669605
-0.567435
-0.577257
-0.586224
-0.533502
-0.536932
-0.541101
-0.513628
-0.517212
-0.521432
-0.488217
-0.515338
-0.525096
-0.509606
-0.529741
-0.537291
-0.626833
-0.642642
-0.653347
-0.604808
-0.656012
-0.672728
-0.569331
-0.574869
-0.581407
-0.520066
-0.563346
-0.574201
-0.55137
-0.559283
-0.563276
-0.554165
-0.564177
-0.569188
-0.607126
-0.614602
-0.623947
-0.572847
-0.6133
-0.625083
-0.577482
-0.613234
-0.626174
-0.574388
-0.577357
-0.585247
-0.590727
-0.606748
-0.613653
-0.539945
-0.551393
-0.558654
-0.536936
-0.562728
-0.57106
-0.528622
-0.548366
-0.554496
-0.462699
-0.47676
-0.481596
-0.504789
-0.512458
-0.516178
-0.498361
-0.508419
-0.517772
-0.453852
-0.455301
-0.459461
-0.503053
-0.504661
-0.509671
-0.483116
-0.505544
-0.512705
-0.624112
-0.636017
-0.649765
-0.543826
-0.546739
-0.556594
-0.56611
-0.56783
-0.579666
-0.607701
-0.62353
-0.63408
-0.571677
-0.582019
-0.591366
-0.531604
-0.53657
-0.539958
-0.508276
-0.51173
-0.515059
-0.507279
-0.537603
-0.548169
-0.519697
-0.53989
-0.547461
-0.633054
-0.644557
-0.653442
-0.620433
-0.639311
-0.649737
-0.626863
-0.638143
-0.643397
-0.571721
-0.608359
-0.620403
-0.606422
-0.657119
-0.673897
-0.569827
-0.57708
-0.583462
-0.526878
-0.570141
-0.581639
-0.551775
-0.559173
-0.563038
-0.561228
-0.569709
-0.575803
-0.619008
-0.631704
-0.644443
-0.577534
-0.612116
-0.624357
-0.580707
-0.58359
-0.591594
-0.588932
-0.604535
-0.611474
-0.544517
-0.556158
-0.563717
-0.465675
-0.479775
-0.484752
-0.508643
-0.517412