/*--------------------------------*- C++ -*----------------------------------*\
| =========                 |                                                 |
| \\      /  F ield         | OpenFOAM: The Open Source CFD Toolbox           |
|  \\    /   O peration     | Version:  2.2.2                                 |
|   \\  /    A nd           | Web:      www.OpenFOAM.org                      |
|    \\/     M anipulation  |                                                 |
\*---------------------------------------------------------------------------*/
FoamFile
{
    version     2.0;
    format      ascii;
    class       surfaceScalarField;
    location    "0.922666";
    object      phi;
}
// * * * * * * * * * * * * * * * * * * * * * * * * * * * * * * * * * * * * * //

dimensions      [1 0 -1 0 0 0 0];

internalField   nonuniform List<scalar> 
75547
(
2.91597e-09
-9.35441e-11
-9.73416e-09
-3.06003e-07
4.21614e-09
2.69463e-09
-1.04927e-08
-3.89587e-07
-5.76457e-09
-4.8277e-09
-1.99141e-06
1.13578e-08
1.00733e-08
5.63676e-09
2.76106e-09
4.81732e-09
4.34666e-09
3.425e-09
-7.37043e-10
6.14441e-09
-1.91955e-06
7.50017e-09
5.41874e-09
1.93238e-09
1.39497e-09
3.40744e-10
4.13024e-09
-1.06092e-08
2.5963e-09
-3.89212e-07
1.92092e-09
2.68149e-09
-1.93615e-06
6.38335e-09
8.00808e-09
3.06768e-09
-1.51735e-09
6.57775e-09
8.32601e-09
3.19778e-09
-1.45627e-09
5.40163e-09
1.83564e-08
-1.91014e-06
2.8537e-08
-1.82132e-06
4.51626e-11
-5.74218e-09
-5.37117e-09
-1.99303e-06
5.04349e-09
4.22507e-09
3.05581e-09
-1.01708e-09
1.23695e-08
1.1135e-08
6.29647e-09
3.9753e-09
1.82588e-08
6.4787e-09
-1.91321e-06
2.19487e-08
2.22363e-08
-1.71373e-06
2.88579e-08
-1.4142e-06
3.61759e-10
3.2708e-09
-1.05309e-08
-3.10038e-10
-3.05718e-07
5.75619e-09
-1.92283e-06
8.03432e-09
5.64075e-09
2.92504e-09
2.01681e-09
7.49003e-10
2.98921e-08
-1.82503e-06
4.0876e-10
3.10926e-08
-1.42188e-06
3.1671e-10
-9.61836e-07
1.28778e-10
-1.01375e-09
3.01231e-07
1.20743e-09
-2.42492e-10
-5.96721e-09
-2.96229e-07
3.84915e-07
1.56747e-09
-1.8539e-09
-3.04629e-09
-3.81582e-07
-9.73522e-09
9.20289e-09
-5.00303e-07
3.36086e-09
4.16688e-09
-5.12948e-10
-2.39987e-09
3.35253e-09
3.98942e-09
5.08773e-10
-3.17978e-09
-5.02869e-07
-4.9791e-07
-4.99077e-07
3.80075e-08
-4.96146e-07
4.98838e-09
4.11059e-09
-1.32061e-09
-2.02098e-09
-4.93101e-07
-4.94617e-07
-4.89176e-07
-5.35067e-12
3.84641e-07
1.4071e-09
-3.17335e-09
-1.43681e-09
-3.81438e-07
6.98021e-09
9.14618e-09
-4.77272e-07
2.38933e-09
4.6628e-09
-1.73514e-09
-6.88691e-09
2.58496e-09
4.92533e-09
-1.65166e-09
-6.88294e-09
-4.90356e-07
-4.91101e-07
-4.9095e-07
6.35444e-09
3.70939e-08
-4.90949e-07
-4.88958e-07
-4.83046e-07
-4.74451e-07
5.99963e-08
-4.77482e-07
-4.68969e-07
-4.52282e-07
-4.38341e-07
1.24266e-10
8.64732e-09
-3.42368e-09
-5.0222e-07
2.78475e-09
3.59452e-09
-2.97636e-10
-3.66567e-09
3.76596e-09
5.02393e-09
-4.35206e-10
-2.37129e-09
-4.9909e-07
-5.04399e-07
-5.0094e-07
3.57949e-08
8.62552e-09
-4.91481e-07
-4.83456e-07
-4.89995e-07
-4.74907e-07
3.87142e-08
3.85131e-08
-4.5852e-07
-4.34018e-07
-4.34487e-07
-3.91043e-07
4.63834e-08
-3.82971e-07
-3.5977e-07
-3.24301e-07
-2.95323e-07
4.9512e-10
3.00171e-07
6.6053e-10
-5.62753e-09
4.27063e-11
-2.95247e-07
3.64004e-08
-4.95603e-07
5.79085e-09
4.9812e-09
-1.5458e-09
-1.76964e-09
-4.94787e-07
-4.91433e-07
-4.88591e-07
3.05118e-10
6.0864e-08
-4.78364e-07
-4.53157e-07
-4.70152e-07
-4.39604e-07
4.07533e-10
4.92811e-08
-3.85004e-07
-3.26783e-07
-3.62225e-07
-2.98201e-07
4.32253e-10
-2.44789e-07
-2.16911e-07
-2.17857e-07
-1.85659e-07
1.32324e-10
-1.08904e-09
2.93611e-07
1.37023e-09
-2.50787e-10
-3.07812e-09
-2.91653e-07
3.80406e-07
1.46641e-09
-1.31173e-09
-1.18715e-09
-3.79374e-07
1.67227e-09
1.6392e-09
-1.81107e-09
-2.01968e-10
-5.01602e-07
1.11275e-09
1.59749e-09
4.01174e-10
3.87319e-10
-4.99645e-07
3.80397e-07
1.29868e-09
-1.32345e-09
-8.08893e-10
-3.79563e-07
4.30526e-10
5.66826e-10
-5.53165e-10
-2.96885e-10
-4.7742e-07
-1.63775e-09
1.01863e-09
-7.37007e-10
1.98569e-09
-4.91578e-07
-3.71028e-09
2.93241e-09
2.84688e-10
6.54305e-09
-4.83532e-07
8.5001e-10
2.0487e-09
-6.28142e-10
-5.50844e-10
-5.0394e-07
6.15355e-10
-1.33395e-09
1.81933e-09
-1.20051e-10
-4.92462e-07
-1.8424e-09
-1.52156e-09
4.58568e-09
5.00862e-09
-4.6475e-07
-7.84986e-09
-1.73324e-09
4.08567e-09
1.42689e-08
-3.91742e-07
2.92767e-07
1.13455e-09
-2.92769e-09
-1.71675e-10
-2.90802e-07
7.95486e-10
5.91321e-10
-3.83254e-10
1.51316e-10
-4.96758e-07
2.03049e-09
-1.84212e-09
6.00016e-09
-1.34383e-10
-4.84418e-07
-2.15083e-09
-8.0266e-09
1.46564e-08
4.36688e-09
-3.9385e-07
-8.39467e-09
-9.14681e-09
8.86809e-09
8.11672e-09
-2.44232e-07
2.89816e-07
1.5732e-09
-5.1289e-10
-2.56315e-09
-2.88313e-07
3.79986e-07
-1.18308e-10
8.0636e-10
1.37635e-09
-3.8205e-07
5.61365e-10
-9.80007e-10
5.05183e-07
6.02959e-10
1.96267e-09
-5.0733e-07
1.13808e-09
5.02856e-07
8.40118e-11
2.00417e-10
5.17192e-10
-5.04796e-07
3.80069e-07
-1.90144e-10
6.92597e-10
1.105e-09
-3.81676e-07
-2.13012e-09
-1.84454e-09
4.78743e-07
2.73186e-09
3.00202e-09
-4.80502e-07
4.92965e-07
-4.00385e-09
-2.48407e-09
2.3206e-09
5.73863e-09
-4.94537e-07
4.86884e-07
-2.23845e-09
-4.48903e-10
6.27398e-10
7.41477e-09
-4.92239e-07
-1.23628e-09
5.61925e-10
5.07007e-07
1.68777e-09
9.1033e-10
-5.08931e-07
4.94473e-07
-2.89465e-09
-3.94931e-09
5.60897e-09
2.9193e-09
-4.96157e-07
4.63898e-07
-6.41831e-09
-6.20757e-09
7.06968e-09
7.43825e-09
-4.6578e-07
3.89874e-07
-1.08428e-08
-4.57282e-09
4.26361e-09
1.43465e-08
-3.93069e-07
2.89365e-07
5.22121e-10
1.9069e-09
-1.64807e-10
-2.9163e-07
-2.93919e-09
4.987e-07
-3.01386e-10
3.86058e-09
3.49642e-10
-4.99669e-07
4.87205e-07
-1.28916e-09
-4.73903e-09
7.41717e-09
7.1625e-10
-4.89311e-07
3.9214e-07
-5.03871e-09
-1.10088e-08
1.48697e-08
4.5226e-09
-3.95485e-07
2.34762e-07
-1.0931e-08
-1.16275e-08
8.12171e-09
7.51783e-09
-2.27843e-07
2.90214e-07
-1.9562e-10
-6.44834e-12
2.51873e-09
-2.92531e-07
3.8393e-07
-5.9801e-10
1.22411e-09
9.05299e-10
-3.85461e-07
-1.46981e-10
-1.33175e-09
5.09553e-07
8.86026e-10
4.42185e-10
-5.09403e-07
-3.49866e-09
5.05427e-07
3.67519e-10
1.3065e-11
4.25054e-09
-5.0656e-07
3.83272e-07
-6.18239e-10
1.97272e-09
1.07036e-09
-3.85697e-07
-2.31829e-09
-2.26419e-09
4.82706e-07
3.25946e-09
3.73522e-09
-4.85118e-07
4.96812e-07
-3.62559e-09
-3.39363e-09
3.31456e-09
7.24098e-09
-5.00348e-07
4.95014e-07
-5.27735e-09
-2.17872e-09
1.15514e-09
8.66349e-09
-4.97377e-07
-1.01845e-09
-1.43752e-09
5.09858e-07
1.77367e-09
6.84682e-10
-5.0986e-07
4.98372e-07
-3.85507e-09
-3.71702e-09
7.08496e-09
4.09741e-09
-5.01982e-07
4.67312e-07
-9.5532e-09
-9.26397e-09
1.04292e-08
1.10357e-08
-4.69959e-07
3.91576e-07
-1.46622e-08
-8.61452e-09
5.54884e-09
1.80396e-08
-3.91888e-07
2.94357e-07
-4.24082e-10
2.75553e-09
9.66971e-11
-2.96785e-07
-4.05517e-09
5.01495e-07
3.08054e-12
5.46391e-09
3.70372e-10
-5.03277e-07
4.8837e-07
-3.17455e-09
-7.37223e-09
1.06977e-08
1.97803e-09
-4.90499e-07
3.93905e-07
-9.63549e-09
-1.50597e-08
1.80884e-08
5.85322e-09
-3.93152e-07
2.16649e-07
-1.47212e-08
-1.44274e-08
8.96658e-09
8.66483e-09
-2.05131e-07
2.94748e-07
-5.94049e-10
4.04607e-11
2.971e-09
-2.97166e-07
3.88164e-07
-3.46943e-10
3.24002e-10
2.04113e-09
-3.90182e-07
-2.72988e-09
-1.23537e-09
5.09947e-07
1.22545e-09
3.07424e-09
-5.10282e-07
-4.72558e-09
5.07393e-07
-9.84055e-10
3.93205e-10
6.59711e-09
-5.08674e-07
3.88492e-07
-6.20644e-10
1.9287e-09
8.06679e-10
-3.90607e-07
-1.95798e-09
-2.44264e-09
4.85663e-07
2.89529e-09
2.71956e-09
-4.86877e-07
5.03667e-07
-2.89173e-09
-3.10578e-09
2.80529e-09
5.9315e-09
-5.06406e-07
4.98806e-07
-8.23674e-09
-1.97309e-09
7.52994e-10
1.09664e-08
-5.00316e-07
-1.82829e-09
-3.45618e-09
5.11089e-07
3.10171e-09
1.60746e-09
-5.10514e-07
5.04541e-07
-2.96636e-09
-4.19943e-09
6.57115e-09
2.55287e-09
-5.06499e-07
4.72806e-07
-1.02416e-08
-9.68275e-09
1.20296e-08
1.2957e-08
-4.77869e-07
3.91206e-07
-1.66663e-08
-1.08005e-08
5.42114e-09
2.17936e-08
-3.90954e-07
2.99955e-07
-1.05449e-09
5.01673e-09
9.9886e-11
-3.04017e-07
-5.23397e-09
5.03962e-07
-9.41097e-10
6.21543e-09
-3.14465e-10
-5.03688e-07
4.92715e-07
-2.08976e-09
-8.50147e-09
1.2414e-08
1.05782e-09
-4.95595e-07
3.92231e-07
-1.26523e-08
-1.69322e-08
2.19148e-08
6.83398e-09
-3.91396e-07
1.89962e-07
-1.86097e-08
-1.89305e-08
1.04293e-08
9.94068e-09
-1.72792e-07
3.00965e-07
-1.17923e-09
1.37504e-10
5.5628e-09
-3.05486e-07
3.92577e-07
1.6296e-10
2.24373e-10
2.22203e-09
-3.95187e-07
-2.29192e-09
-9.49662e-10
5.11037e-07
1.33656e-09
3.2528e-09
-5.12385e-07
-5.23307e-09
5.09067e-07
-1.42619e-09
1.55586e-10
5.42585e-09
-5.0799e-07
3.91498e-07
3.5043e-10
1.31966e-09
5.55626e-10
-3.93724e-07
-1.24544e-09
-1.02081e-09
4.88921e-07
2.25741e-09
1.86913e-09
-4.90781e-07
5.06546e-07
-5.0631e-09
-3.15681e-09
2.6829e-09
7.00408e-09
-5.08013e-07
5.01907e-07
-8.16378e-09
-1.11717e-09
-7.53601e-10
1.24278e-08
-5.043e-07
-1.5448e-09
-2.58141e-09
5.10542e-07
3.56232e-09
1.67439e-09
-5.11653e-07
5.07716e-07
-3.61316e-09
-4.75184e-09
6.96238e-09
2.96014e-09
-5.09273e-07
4.84471e-07
-1.02075e-08
-9.84794e-09
1.35372e-08
1.34857e-08
-4.91438e-07
3.92259e-07
-1.80468e-08
-1.37064e-08
7.68015e-09
2.45377e-08
-3.92724e-07
3.06856e-07
1.14775e-10
1.34944e-09
3.09907e-11
-3.08351e-07
-1.77597e-09
5.04516e-07
-8.96313e-10
3.74274e-09
9.16257e-10
-5.06503e-07
4.99504e-07
-6.33613e-10
-6.52247e-09
1.09521e-08
1.74494e-10
-5.03474e-07
3.90259e-07
-1.31547e-08
-1.90594e-08
2.53082e-08
7.62855e-09
-3.90982e-07
1.53912e-07
-2.22333e-08
-2.2616e-08
1.23069e-08
1.18127e-08
-1.33182e-07
3.08781e-07
2.23736e-10
-1.40561e-10
-3.99368e-12
-3.0886e-07
3.95332e-07
2.34863e-10
-2.47115e-10
-2.61559e-11
-3.95293e-07
-3.00089e-09
-1.05869e-09
5.12807e-07
1.06073e-09
2.55687e-09
-5.12365e-07
-1.59207e-10
5.07771e-07
-5.72995e-10
-6.48483e-10
1.74437e-09
-5.08135e-07
3.95948e-07
2.28588e-10
-1.15441e-10
-4.3845e-10
-3.95622e-07
1.29204e-10
2.5485e-10
4.91853e-07
6.59222e-10
7.12411e-10
-4.93609e-07
5.10814e-07
-3.22979e-09
9.68376e-12
8.44277e-10
5.82032e-09
-5.14259e-07
5.08425e-07
-4.43603e-09
-1.38013e-10
-1.31505e-09
9.06534e-09
-5.11601e-07
-1.02433e-09
-1.54504e-09
5.13656e-07
1.30443e-09
2.46558e-10
-5.12638e-07
5.12245e-07
-3.91409e-10
-2.43322e-09
5.28272e-09
1.69788e-09
-5.16401e-07
4.99172e-07
-7.45133e-09
-8.42355e-09
1.18379e-08
1.19154e-08
-5.0705e-07
3.92139e-07
-1.80103e-08
-1.36411e-08
7.13604e-09
2.57333e-08
-3.93357e-07
3.08749e-07
2.21924e-10
2.14312e-10
-7.48937e-11
-3.0911e-07
-6.36548e-10
5.08064e-07
-6.1857e-10
1.32268e-09
4.29541e-10
-5.08562e-07
5.07507e-07
-8.64358e-10
-4.33991e-09
9.05213e-09
-3.46013e-10
-5.11009e-07
3.92683e-07
-1.3572e-08
-1.82489e-08
2.69845e-08
7.45615e-09
-3.95303e-07
1.11713e-07
-2.37896e-08
-2.42596e-08
1.34515e-08
1.32043e-08
-9.03192e-08
3.09201e-07
1.09531e-10
-1.35427e-10
3.96866e-10
-3.09572e-07
3.9566e-07
6.90396e-11
1.30319e-10
1.05301e-09
-3.96913e-07
-9.91459e-10
-8.60963e-10
5.1342e-07
5.91212e-10
3.39351e-09
-5.15552e-07
-2.48089e-09
5.07576e-07
-1.23267e-10
1.34448e-10
2.73737e-09
-5.07844e-07
3.95841e-07
-2.81834e-11
1.07692e-09
9.22401e-11
-3.96982e-07
-2.47801e-09
-2.45561e-09
4.95928e-07
2.36706e-09
2.70473e-09
-4.96066e-07
5.15847e-07
-3.67091e-09
-2.24682e-09
-3.18898e-10
4.06567e-09
-5.13676e-07
5.13601e-07
-1.41462e-09
7.81741e-10
9.2447e-11
2.94587e-10
-5.13355e-07
-6.9011e-10
-1.08249e-09
5.13627e-07
3.80672e-09
3.74634e-10
-5.16035e-07
5.18145e-07
-2.43388e-09
-4.00822e-09
3.22432e-09
-2.83982e-10
-5.14644e-07
5.12876e-07
-5.35867e-09
-3.67935e-09
6.32395e-09
6.51226e-09
-5.16674e-07
3.99536e-07
-7.38538e-09
-1.06717e-08
6.34861e-09
4.09067e-09
5.1425e-09
6.51967e-09
5.48837e-09
-8.88751e-08
-1.12586e-07
-1.08101e-07
-9.95077e-08
3.09305e-07
8.66407e-11
4.57309e-10
-1.44022e-10
-3.09705e-07
-2.44318e-09
5.09393e-07
-3.25882e-10
2.6692e-09
2.2056e-10
-5.09514e-07
5.13101e-07
3.51826e-10
-1.90983e-09
9.55338e-10
7.37952e-10
-5.13237e-07
3.99343e-07
-1.01924e-08
-7.46993e-09
6.46366e-09
3.92098e-09
5.35596e-09
6.89369e-09
5.35401e-09
-8.88967e-08
-1.12956e-07
-9.95695e-08
-1.08247e-07
2.36099e-08
-3.61741e-09
-3.2881e-09
2.70982e-09
3.10178e-09
-2.2516e-08
3.10315e-07
1.17907e-10
-3.10322e-10
-5.29642e-10
-3.09592e-07
3.98802e-07
2.55845e-10
-8.38001e-11
-6.16029e-10
-3.98358e-07
6.52677e-10
4.71636e-10
5.19608e-07
-9.03834e-10
-7.64636e-10
-5.19063e-07
1.18429e-09
5.07088e-07
-1.06441e-09
3.61783e-10
-3.10738e-09
-5.04462e-07
3.98941e-07
7.05849e-11
-7.53465e-10
2.32268e-10
-3.9849e-07
1.61251e-10
7.02243e-10
4.96422e-07
-1.31827e-09
-9.12005e-10
-4.95056e-07
5.10028e-07
2.76687e-09
2.85329e-09
-5.25925e-09
-5.3641e-09
-5.05025e-07
5.08919e-07
7.30032e-09
5.56716e-09
-3.04423e-09
-1.32741e-08
-5.05469e-07
3.81706e-10
8.00273e-10
5.19953e-07
-8.32283e-10
-2.2493e-10
-5.20077e-07
5.10916e-07
2.84056e-09
2.50238e-09
-5.18898e-09
-5.37668e-09
-5.05693e-07
5.18351e-07
8.03761e-09
7.60388e-09
-1.80814e-09
-2.0298e-09
-5.19848e-07
-2.18581e-09
-2.63275e-09
-1.01573e-09
-1.89063e-09
-2.05553e-09
-5.26416e-10
2.3937e-10
-1.15032e-07
3.59854e-09
8.94373e-11
1.08742e-07
8.30611e-11
3.57957e-10
7.86862e-10
1.13546e-09
3.1041e-07
9.41729e-11
-4.93139e-10
-4.13752e-10
-3.09597e-07
8.97628e-10
5.08305e-07
-4.15713e-10
-3.10631e-09
-1.59959e-09
-5.04081e-07
5.08642e-07
5.81742e-09
7.21072e-09
-1.27629e-08
-5.36424e-09
-5.03543e-07
3.98449e-09
-2.49814e-10
-1.22676e-07
1.54124e-09
-1.6126e-09
1.19012e-07
5.95549e-09
-2.63714e-09
-2.16596e-09
1.12683e-09
1.20885e-09
-3.48807e-09
-2.36023e-07
-4.4164e-09
-9.59107e-09
-2.891e-09
-3.20716e-09
-2.29925e-07
-6.88938e-09
-1.88793e-07
-1.48631e-09
-4.15608e-07
-5.53202e-07
-3.78799e-09
-2.36469e-09
-1.70456e-09
-1.84724e-07
-3.40016e-09
-4.09462e-07
-2.26405e-09
-5.53941e-07
-8.81782e-09
-3.66104e-07
1.19289e-09
-7.97149e-10
-4.6977e-07
-4.75775e-07
5.10839e-10
-4.40618e-10
-6.03579e-09
-5.90199e-09
-3.61065e-07
4.22335e-10
-6.92861e-10
-4.75444e-07
-4.81199e-07
2.24414e-10
-5.0747e-09
-1.87735e-07
-5.30985e-09
-1.87705e-07
-4.443e-07
-6.52224e-09
-6.42515e-09
-2.64458e-09
-1.84214e-09
-1.83248e-07
-2.80314e-09
-1.69524e-09
-1.83206e-07
-3.68094e-09
-3.51615e-09
-4.4255e-07
-9.41047e-09
-5.71122e-07
-4.01498e-09
-4.53572e-07
-4.79686e-07
-1.04576e-09
-5.46904e-09
-4.15978e-09
-5.6779e-07
-1.81239e-09
-4.57841e-07
-4.87913e-07
-2.35139e-07
-9.91642e-09
-4.84874e-09
-3.44274e-09
-2.55254e-09
-2.29144e-07
-3.89384e-09
-4.53586e-07
-9.64056e-09
-5.70611e-07
-4.79399e-07
-5.56949e-09
-6.96768e-10
-1.5346e-09
-4.57939e-07
-4.22248e-09
-5.67473e-07
-4.8763e-07
5.08888e-10
-4.13946e-07
-8.12234e-09
-1.88431e-07
-5.53385e-07
-3.75178e-09
-2.56796e-09
-4.07635e-07
-3.17532e-09
-1.74633e-09
-1.83509e-07
-2.36403e-09
-5.52789e-07
-8.07719e-10
-4.70707e-07
-9.21873e-09
-3.66086e-07
1.21626e-09
-4.76362e-07
5.86063e-10
-6.7673e-09
-5.25739e-10
-9.14811e-10
-4.75998e-07
-6.39342e-09
-3.60518e-07
2.99669e-10
-4.81984e-07
3.30832e-10
-2.26212e-07
-2.47008e-09
-1.24318e-09
-1.91323e-09
5.31351e-10
-2.2483e-07
-2.5682e-09
-1.80948e-07
-2.6667e-09
-4.05905e-07
-5.52891e-07
-2.11803e-09
-9.93144e-10
-1.0621e-09
-1.78893e-07
-2.97282e-09
-4.05358e-07
-2.35264e-09
-5.56905e-07
-6.0118e-09
-3.55463e-07
1.67366e-10
-6.19261e-10
-4.77922e-07
-4.83784e-07
6.42788e-11
-2.52188e-10
-3.42699e-09
-3.21922e-09
-3.52577e-07
8.09234e-11
-9.26271e-10
-4.84096e-07
-4.89948e-07
-1.70181e-12
-1.21595e-09
-1.80465e-07
-1.36434e-09
-1.80435e-07
-4.40892e-07
-2.19392e-09
-2.04491e-09
-3.39531e-10
-1.14274e-09
-1.78983e-07
-4.87862e-10
-9.88886e-10
-1.78958e-07
-5.42746e-10
-3.37261e-10
-4.40839e-07
-2.77287e-09
-5.64762e-07
-1.80177e-09
-4.58891e-07
-4.83835e-07
-1.37513e-09
-9.43111e-10
1.57756e-09
-5.66674e-07
3.01204e-10
-4.62413e-07
-4.92023e-07
-2.25831e-07
-1.50117e-09
-1.81144e-09
2.004e-10
-1.1068e-09
-2.24925e-07
-1.53033e-09
-4.59042e-07
-2.89494e-09
-5.64731e-07
-4.83535e-07
-1.07156e-09
-9.58232e-10
5.93652e-10
-4.62696e-07
1.40724e-09
-5.67194e-07
-4.92083e-07
-1.12667e-09
-4.04553e-07
-2.94136e-09
-1.79907e-07
-5.5041e-07
-1.423e-09
-6.50567e-10
-4.05445e-07
-1.41336e-09
-4.3285e-10
-1.78061e-07
-3.54534e-10
-5.5449e-07
-4.37018e-10
-4.76821e-07
-5.8122e-09
-3.54729e-07
6.66121e-11
-4.83389e-07
1.37223e-10
-3.03874e-09
1.25959e-10
2.3478e-10
-4.81995e-07
-3.04929e-09
-3.51574e-07
1.93343e-11
-4.88039e-07
6.53385e-11
-2.23593e-07
-1.37455e-09
1.37832e-10
-8.10314e-10
-9.96942e-10
-2.21786e-07
-7.67721e-10
-1.76755e-07
-1.02464e-09
-4.04036e-07
-5.58288e-07
-1.09676e-09
6.87921e-10
-1.44914e-09
-2.26627e-09
-1.7304e-07
-1.35453e-09
-4.01826e-07
-1.66536e-09
-1.78345e-09
-5.57412e-07
-1.89607e-09
-2.63139e-09
-3.50229e-07
3.2584e-11
2.67821e-10
-4.87426e-07
-4.91671e-07
-5.96326e-10
-4.45388e-11
-9.78652e-10
-3.12427e-09
-2.49447e-09
-3.48681e-07
-3.23463e-11
-2.86512e-10
-4.90392e-07
-1.65481e-09
-4.92814e-07
-1.51765e-09
-1.19986e-10
1.48814e-10
-1.77665e-07
-2.78309e-12
-1.77657e-07
-4.40678e-07
-1.05209e-10
9.02048e-11
9.52791e-11
4.21577e-12
-1.77765e-07
-1.4403e-10
1.23638e-10
-1.77636e-07
3.71677e-10
5.34604e-10
-4.41633e-07
9.84849e-10
-5.67194e-07
9.85826e-10
-4.6426e-07
-4.95527e-07
1.32407e-09
4.15044e-09
-2.55176e-10
8.71573e-10
6.52579e-10
-5.68408e-07
-6.90316e-10
4.76249e-10
-4.65628e-07
2.1347e-09
-4.96889e-07
5.07643e-10
1.98306e-09
-2.23992e-07
-3.84061e-10
-5.49438e-10
-1.05519e-09
-6.03783e-10
-2.22333e-07
1.27794e-09
-4.6464e-07
7.65958e-10
-5.68302e-07
-4.95864e-07
4.03906e-09
1.78533e-09
6.22757e-10
6.3648e-12
7.32455e-10
-4.66183e-07
1.96791e-09
2.78808e-10
-5.69705e-07
7.49303e-11
-4.97789e-07
1.77397e-09
1.16308e-09
4.16227e-10
-4.04362e-07
-1.08366e-09
-1.75843e-07
-5.55389e-07
-2.5622e-10
4.87481e-10
-1.37181e-09
-4.01955e-07
-1.63891e-09
-9.9108e-10
-2.37093e-09
-1.72481e-07
-2.03295e-09
-5.54179e-07
-1.53964e-09
4.9093e-10
-4.84874e-07
-2.34522e-09
-3.49324e-07
-7.59385e-11
-4.90073e-07
1.39398e-10
4.00633e-11
-2.87022e-09
-9.37128e-10
-4.35027e-10
-4.8838e-07
-9.61817e-10
-2.4125e-09
-3.47812e-07
-3.70974e-11
-4.92319e-07
-5.86894e-10
-1.4627e-11
-2.22263e-07
1.84979e-10
2.92368e-10
5.70194e-10
-1.33589e-09
-2.21497e-07
-8.82143e-10
-1.70584e-07
3.11516e-10
-4.01391e-07
-5.5703e-07
-1.0822e-09
1.28787e-10
8.4706e-10
-2.08234e-10
-1.71223e-07
1.1082e-10
-4.00148e-07
-7.83912e-10
-7.85989e-10
-5.55434e-07
1.48703e-10
-2.16892e-09
-3.46672e-07
-3.53163e-10
-1.02783e-10
-4.92797e-07
-4.94274e-07
-6.09818e-10
-2.0215e-10
-1.82683e-10
1.87558e-09
2.28506e-09
-3.48883e-07
-2.55867e-10
-3.10255e-10
-4.93609e-07
2.21249e-09
-4.9534e-07
3.20488e-09
-1.64341e-10
1.39989e-09
-1.79283e-07
9.15823e-10
-1.78742e-07
-4.4436e-07
2.44884e-09
2.5943e-09
2.64114e-10
1.01518e-09
-1.80562e-07
2.61245e-10
9.15054e-10
-1.79918e-07
1.71927e-09
1.93368e-09
-4.47488e-07
2.84221e-09
-5.71132e-07
3.51317e-09
-4.67446e-07
-4.98748e-07
2.89981e-09
5.31483e-09
1.77953e-09
1.11511e-09
1.08119e-09
-5.73361e-07
1.59204e-09
2.44171e-09
-4.70314e-07
3.26066e-09
-5.01745e-07
2.78427e-09
3.73483e-09
-2.21981e-07
-4.19085e-10
6.70738e-11
-4.86039e-10
1.2904e-11
-2.21507e-07
3.65955e-09
-4.684e-07
2.16671e-09
-5.72422e-07
-5.00333e-07
5.06343e-09
3.30703e-09
1.06148e-09
1.44977e-09
2.58356e-09
-4.70898e-07
2.90903e-09
1.13553e-09
-5.73522e-07
9.28366e-10
-5.02769e-07
3.39032e-09
2.76448e-09
1.57482e-10
-4.01483e-07
1.71738e-09
-1.73676e-07
-5.54809e-07
3.02791e-12
2.50169e-09
-7.69091e-10
-4.01781e-07
1.07975e-09
1.87893e-09
2.55055e-10
-1.7581e-07
-2.67525e-10
-5.56483e-07
3.05163e-09
2.94717e-10
-4.89704e-07
1.64108e-09
-3.49241e-07
-3.76895e-10
-4.93582e-07
3.36513e-09
-1.66301e-10
2.98266e-09
2.7374e-14
-1.69755e-11
-4.9147e-07
4.49748e-09
2.52989e-09
-3.51575e-07
-1.95385e-10
-4.95428e-07
4.47297e-09
-1.13413e-10
-2.21931e-07
2.45074e-10
1.88495e-10
2.87094e-10
9.01189e-10
-2.23119e-07
1.6407e-09
-1.7306e-07
4.16091e-10
-4.00466e-07
-5.55478e-07
1.15139e-10
1.98505e-09
1.73622e-09
4.94561e-10
-1.7529e-07
1.00102e-10
-4.02133e-07
1.85461e-09
9.19879e-10
-5.57851e-07
3.28992e-09
2.62492e-09
-3.51365e-07
-1.50103e-10
1.81696e-10
-4.94656e-07
-4.96995e-07
4.58108e-09
-1.19464e-10
5.22614e-12
2.7064e-09
2.25789e-09
-3.53546e-07
-7.10281e-11
3.10743e-10
-4.96153e-07
4.81259e-09
-4.99153e-07
4.79279e-09
-6.5754e-11
9.47044e-10
-1.82107e-07
1.54039e-09
-1.82077e-07
-4.50408e-07
2.60175e-09
2.80529e-09
1.59906e-09
1.05582e-09
-1.84762e-07
1.62258e-09
1.18431e-09
-1.84884e-07
2.8499e-09
3.05201e-09
-4.53088e-07
7.99836e-10
-5.7408e-07
3.25496e-09
-4.7238e-07
-5.0456e-07
2.95814e-09
3.91191e-09
7.59488e-10
2.99862e-09
2.46027e-09
-5.76183e-07
1.30332e-09
2.47979e-09
-4.72328e-07
3.31586e-09
-5.05495e-07
2.61632e-09
3.2588e-09
-2.22241e-07
6.59082e-10
7.42729e-11
1.23274e-09
2.65428e-10
-2.23739e-07
3.69297e-09
-4.72077e-07
1.79428e-09
-5.74606e-07
-5.04153e-07
3.76961e-09
3.10165e-09
3.46289e-09
5.16828e-10
2.61206e-09
-4.71491e-07
3.31654e-09
3.26878e-09
-5.77174e-07
1.04915e-09
-5.0404e-07
3.42263e-09
2.34449e-09
3.00381e-10
-4.03445e-07
1.87038e-09
-1.78104e-07
-5.58355e-07
4.64483e-10
3.57792e-09
5.23124e-10
-4.0677e-07
3.06806e-09
2.27701e-09
8.35377e-10
-1.81217e-07
1.17221e-09
-5.61117e-07
4.38968e-09
2.82656e-10
-4.92588e-07
2.18925e-09
-3.53618e-07
-4.91699e-11
-4.97172e-07
4.25779e-09
-4.19061e-11
3.90796e-09
9.70635e-11
1.6982e-10
-4.92539e-07
4.8622e-09
3.02974e-09
-3.57206e-07
6.55363e-10
-4.98199e-07
4.29396e-09
-6.76836e-11
-2.2513e-07
3.9453e-10
1.61651e-09
6.75147e-10
2.02069e-09
-2.27826e-07
2.01587e-09
-1.779e-07
6.00242e-10
-4.05069e-07
-5.60846e-07
1.33568e-09
4.27525e-09
2.5176e-09
8.93067e-10
-1.81311e-07
7.33459e-10
-4.08793e-07
3.66574e-09
1.70045e-09
-5.64061e-07
4.76561e-09
2.19592e-09
-3.54943e-07
-7.58618e-10
4.72779e-10
-4.97045e-07
-5.00909e-07
4.5156e-09
-9.08002e-11
6.91853e-11
4.62336e-09
4.50483e-09
-3.59404e-07
2.4975e-11
4.86636e-10
-4.96316e-07
5.10866e-09
-5.00364e-07
4.51054e-09
-6.47728e-11
1.5336e-09
-1.86643e-07
1.17363e-09
-1.86678e-07
-4.55123e-07
2.33879e-09
2.40328e-09
2.61599e-10
-3.42218e-10
-1.86562e-07
2.18418e-11
2.46486e-10
-1.86947e-07
4.14479e-10
8.22526e-10
-4.56076e-07
2.11467e-09
-5.77593e-07
2.64853e-09
-4.72554e-07
-5.05391e-07
2.50954e-09
2.1499e-09
2.43943e-10
1.80954e-09
3.9616e-09
-5.81205e-07
1.9153e-09
1.97659e-09
-4.73749e-07
1.44184e-09
-5.05201e-07
3.02649e-09
2.72196e-09
-2.26638e-07
1.88447e-09
1.01489e-09
1.87947e-09
1.13249e-09
-2.2965e-07
2.66214e-09
-4.72264e-07
1.82638e-09
-5.78137e-07
-5.05119e-07
3.14835e-09
2.41998e-09
2.87214e-10
8.50026e-10
1.76045e-09
-4.74358e-07
1.44324e-09
1.73001e-09
-5.79455e-07
2.31671e-09
-5.06931e-07
2.48208e-09
2.81964e-09
9.25427e-10
-4.10137e-07
2.91348e-09
-1.85185e-07
-5.63681e-07
1.691e-09
4.71167e-09
1.27915e-09
-4.1466e-07
4.37622e-09
2.09422e-09
9.33904e-10
-1.88213e-07
1.51838e-09
-5.6613e-07
4.30478e-09
1.77918e-10
-4.91244e-07
4.18962e-09
-3.60708e-07
-5.88011e-10
-4.98318e-07
4.71584e-09
-2.2967e-10
3.56408e-09
2.08307e-10
8.19375e-10
-4.90516e-07
3.53521e-09
4.45992e-09
-3.6513e-07
1.70138e-10
-4.97741e-07
4.39259e-09
3.10354e-10
-2.29024e-07
2.45714e-10
9.52587e-10
8.03986e-10
1.93761e-09
-2.31766e-07
2.80673e-09
-1.85297e-07
1.04849e-09
-4.11888e-07
-5.66756e-07
2.06738e-09
4.4829e-09
2.23787e-09
8.86106e-10
-1.88421e-07
1.36241e-09
-4.16143e-07
3.69638e-09
1.60951e-09
-5.6823e-07
3.4645e-09
5.97406e-09
-3.65307e-07
6.70329e-11
5.02502e-10
-4.94421e-07
-4.99115e-07
5.28019e-09
-5.24141e-11
2.145e-12
4.17897e-09
4.0824e-09
-3.69521e-07
1.33181e-10
2.70444e-10
-4.91807e-07
2.90393e-09
-4.97946e-07
3.21395e-09
-3.01735e-11
7.82394e-10
-1.87181e-07
1.13598e-10
-1.8671e-07
-4.56193e-07
7.75551e-10
2.37328e-10
2.17417e-10
-1.85943e-10
-1.87213e-07
4.56807e-10
1.00264e-10
-1.87267e-07
-6.95523e-10
-4.28042e-10
-4.54395e-07
3.25925e-09
-5.84237e-07
2.08244e-09
-4.74079e-07
-5.05714e-07
2.39241e-09
3.46209e-09
-4.11083e-10
3.69831e-10
9.57502e-10
-5.84582e-07
9.14459e-10
7.75652e-11
-4.74146e-07
-3.36458e-10
-5.07788e-07
9.44489e-10
2.16472e-09
-2.31409e-07
1.21346e-09
5.45553e-10
2.93549e-10
6.7962e-11
-2.31771e-07
1.91785e-09
-4.75739e-07
2.85076e-09
-5.82081e-07
-5.08164e-07
2.83725e-09
3.16495e-09
1.82174e-09
5.02435e-10
1.45533e-09
-4.75821e-07
2.05508e-11
2.82456e-09
-5.84983e-07
8.73712e-10
-5.08838e-07
2.59128e-09
2.36265e-09
1.1319e-09
-4.17828e-07
4.5111e-11
-1.88143e-07
-5.68167e-07
6.16768e-10
2.59701e-09
2.45966e-10
-4.18396e-07
3.90276e-10
3.48706e-10
-1.28404e-10
-1.88363e-07
4.4929e-10
-5.68809e-07
7.87458e-10
7.08148e-10
-4.91034e-07
3.28368e-09
-3.68561e-07
1.78041e-10
-4.9664e-07
2.8392e-09
5.121e-11
3.95636e-10
-1.26223e-10
8.42958e-11
-4.91394e-07
1.12096e-09
3.76912e-10
-3.69071e-07
6.87825e-12
-4.97346e-07
1.29715e-09
-1.30041e-10
-2.34429e-07
5.63237e-10
2.09947e-09
-9.70238e-11
1.65759e-10
-2.34497e-07
1.00885e-10
-1.88298e-07
7.38826e-10
-4.19319e-07
-5.694e-07
4.14296e-10
1.59508e-09
4.22479e-10
-3.32012e-10
-1.88388e-07
9.93687e-11
-4.19533e-07
1.78298e-11
2.52227e-11
-5.69545e-07
6.422e-10
-3.00213e-11
-3.69607e-07
-2.39273e-11
-6.15417e-11
-4.91495e-07
-4.98205e-07
1.86264e-10
-1.81963e-11
-1.96427e-10
2.04969e-10
1.1404e-10
-3.69923e-07
5.51033e-12
-2.77266e-11
-4.92269e-07
1.0327e-09
-4.99138e-07
9.66225e-10
5.29761e-11
1.19971e-10
-1.87098e-07
6.42321e-11
-1.87102e-07
-4.53503e-07
-3.03211e-10
-4.05358e-10
1.5671e-10
-2.43487e-10
-1.87011e-07
8.4361e-11
-1.73191e-10
-1.87014e-07
1.53297e-10
2.56863e-10
-4.53672e-07
1.35984e-09
-5.85148e-07
6.11108e-10
-4.74957e-07
-5.0827e-07
8.30404e-10
1.622e-09
-3.23528e-11
1.55886e-10
6.79765e-10
-5.85734e-07
3.8866e-11
1.24128e-09
-4.76501e-07
6.11476e-10
-5.09181e-07
1.46126e-09
1.37079e-09
-2.34474e-07
2.09767e-09
6.05243e-10
1.66516e-10
-9.35116e-11
-2.34547e-07
5.36263e-10
-4.76624e-07
9.70621e-10
-5.85319e-07
-5.09786e-07
1.07844e-09
1.37598e-09
1.37138e-10
-9.11092e-11
1.11314e-09
-4.77697e-07
3.54076e-10
7.17832e-10
-5.857e-07
-2.61966e-10
-5.10004e-07
1.12854e-09
9.21135e-10
1.42071e-10
-4.19478e-07
3.10475e-10
-1.88452e-07
-5.6901e-07
3.61363e-10
2.91812e-10
1.47344e-11
-4.19788e-07
2.02132e-10
2.55297e-10
-2.89889e-10
-1.88417e-07
-5.9594e-11
-5.69497e-07
8.16658e-10
4.57013e-10
-4.91912e-07
3.02298e-10
-3.69483e-07
3.50292e-11
-4.97657e-07
9.24355e-10
1.45995e-10
3.47918e-11
-1.29412e-10
1.81581e-10
-4.93127e-07
1.00826e-09
8.91687e-11
-3.69732e-07
3.05567e-11
-4.9858e-07
1.12648e-09
6.74231e-11
-2.35164e-07
2.26135e-10
4.40074e-10
6.69428e-11
1.00847e-09
-2.36239e-07
4.26496e-10
-1.88705e-07
3.51092e-10
-4.2065e-07
-5.71294e-07
3.53934e-10
2.17252e-09
7.21714e-10
-3.14092e-11
-1.89396e-07
1.72042e-10
-4.22899e-07
2.14459e-09
1.09116e-09
-5.75039e-07
3.54745e-09
7.95165e-11
-3.70073e-07
-6.58588e-11
1.92756e-10
-4.94192e-07
-5.00414e-07
1.656e-09
-1.08345e-10
-4.59512e-11
7.57228e-10
7.96895e-10
-3.70858e-07
-5.71895e-11
6.64324e-10
-4.95682e-07
2.67335e-09
-5.00953e-07
2.06849e-09
-6.79317e-11
4.39298e-10
-1.87381e-07
3.47369e-10
-1.87389e-07
-4.54944e-07
9.73423e-10
1.08587e-09
7.24955e-10
9.0545e-11
-1.88197e-07
5.30286e-10
3.28803e-10
-1.88248e-07
1.9439e-09
2.4271e-09
-4.5806e-07
2.38949e-09
-5.88414e-07
1.42348e-09
-4.78376e-07
-5.11027e-07
2.24113e-09
3.41839e-09
2.25426e-10
1.75492e-09
4.04231e-09
-5.91927e-07
7.04714e-10
2.58772e-09
-4.8165e-07
4.38509e-09
-5.13146e-07
3.04896e-09
5.69959e-09
-2.35219e-07
3.93595e-10
2.78412e-10
6.16483e-10
5.21192e-10
-2.36356e-07
1.3978e-09
-4.79387e-07
2.58282e-09
-5.88487e-07
-5.1146e-07
3.49762e-09
1.9389e-09
1.48648e-09
8.00417e-10
3.33645e-09
-4.82926e-07
4.11546e-09
3.57238e-09
-5.92589e-07
1.94712e-09
-5.14126e-07
5.58071e-09
3.99423e-09
3.91018e-10
-4.20983e-07
4.01851e-10
-1.88733e-07
-5.71311e-07
4.19536e-10
2.18765e-09
8.75992e-10
-4.22983e-07
1.64491e-09
6.3721e-10
-1.44284e-11
-1.89355e-07
1.44654e-09
-5.74311e-07
3.06635e-09
-5.30964e-11
-4.9464e-07
2.07665e-10
-3.70091e-07
7.2818e-12
-5.00089e-07
1.69249e-09
-2.91002e-11
6.75962e-10
1.43724e-11
9.5939e-10
-4.9587e-07
2.39314e-09
8.45757e-10
-3.70955e-07
3.26612e-11
-5.00864e-07
2.21716e-09
3.63565e-10
-1.38217e-10
-2.30916e-10
-2.3587e-07
-2.2055e-10
-1.89057e-07
-1.77774e-10
-4.22207e-07
2.54114e-10
-9.10413e-10
-5.74781e-07
-9.358e-10
-3.70194e-07
-3.85249e-11
-3.64316e-10
-4.94408e-07
-2.46548e-09
-4.99722e-07
-6.52996e-11
-9.5393e-11
-1.87846e-07
-2.84982e-10
-1.87893e-07
-4.05676e-10
1.77156e-10
-4.58212e-07
-3.66224e-10
-5.91404e-07
-4.28035e-10
-4.82082e-07
-5.61793e-10
-1.44453e-09
-5.11934e-07
-3.51662e-10
-9.73726e-11
-2.35907e-07
-5.1172e-11
-4.82749e-07
-3.74394e-10
-5.91953e-07
-1.46596e-09
-5.7006e-10
-5.12516e-07
1.26429e-10
-4.22407e-07
-2.47197e-10
-1.89014e-07
2.75766e-11
-8.25183e-10
-5.73634e-07
-1.23512e-09
-4.94203e-07
-8.91803e-10
-3.7043e-07
-4.70623e-11
-2.26425e-09
-5.00336e-07
-3.91026e-10
3.05235e-09
-5.05447e-07
1.14976e-09
-4.99575e-07
-5.01484e-07
1.04373e-10
6.50462e-09
-5.31264e-10
1.75632e-09
1.45945e-09
4.53735e-10
-5.09788e-07
2.77639e-10
3.80754e-09
-5.01396e-07
1.57838e-10
4.33729e-09
-5.04242e-07
2.11921e-09
-4.95369e-07
-4.66321e-11
1.69596e-09
-4.99532e-07
-4.92447e-07
7.13642e-09
-4.96424e-11
8.2413e-10
1.18596e-09
2.09498e-10
-4.96239e-07
-3.31686e-11
8.85279e-10
4.41551e-09
-5.03489e-07
3.99625e-09
-4.95322e-07
-2.65118e-11
5.35983e-09
-4.911e-07
5.11053e-09
-4.91854e-07
-4.92275e-07
5.65748e-09
6.13747e-09
2.5974e-09
2.82818e-09
3.05702e-09
2.21807e-09
-4.91794e-07
2.81513e-09
2.61899e-09
-4.92686e-07
2.7418e-09
3.21398e-09
-4.92358e-07
9.91985e-09
-4.90178e-07
6.9678e-09
-4.84213e-07
-4.74207e-07
4.14852e-09
1.24945e-08
1.01877e-09
6.39408e-09
6.88737e-09
3.46648e-10
-4.92056e-07
2.47777e-09
8.03266e-09
-4.85587e-07
1.75741e-09
8.53188e-09
-4.75131e-07
1.07174e-08
-4.72203e-07
-6.21981e-11
4.17404e-09
-4.53614e-07
-4.35753e-07
1.2349e-08
-4.63351e-11
7.75241e-10
7.3395e-09
7.73087e-09
-4.75124e-07
-3.82116e-11
1.61634e-09
1.05842e-08
-4.56718e-07
1.10954e-08
-4.37497e-07
-3.6156e-12
1.99628e-09
-5.01263e-07
2.27025e-09
-5.06141e-07
-5.03198e-07
5.48863e-09
1.03604e-09
9.09665e-10
5.93219e-10
1.6008e-09
3.35733e-09
-5.04148e-07
6.47674e-10
6.50637e-10
-5.08386e-07
3.63522e-09
9.81276e-10
-5.05567e-07
7.50298e-09
-4.84524e-07
9.60819e-09
-4.92204e-07
-4.74987e-07
1.24076e-08
4.78337e-09
6.16468e-09
1.82282e-09
3.11826e-09
7.68935e-09