/*--------------------------------*- C++ -*----------------------------------*\
| =========                 |                                                 |
| \\      /  F ield         | OpenFOAM: The Open Source CFD Toolbox           |
|  \\    /   O peration     | Version:  2.2.2                                 |
|   \\  /    A nd           | Web:      www.OpenFOAM.org                      |
|    \\/     M anipulation  |                                                 |
\*---------------------------------------------------------------------------*/
FoamFile
{
    version     2.0;
    format      ascii;
    class       surfaceScalarField;
    location    "0.922666";
    object      phi_0;
}
// * * * * * * * * * * * * * * * * * * * * * * * * * * * * * * * * * * * * * //

dimensions      [1 0 -1 0 0 0 0];

internalField   nonuniform List<scalar> 
75547
(
2.91597e-09
-9.35438e-11
-9.73417e-09
-3.06003e-07
4.21615e-09
2.69463e-09
-1.04928e-08
-3.89587e-07
-5.76459e-09
-4.82777e-09
-1.99141e-06
1.13578e-08
1.00733e-08
5.63677e-09
2.76108e-09
4.81732e-09
4.34667e-09
3.42501e-09
-7.3703e-10
6.14432e-09
-1.91955e-06
7.5002e-09
5.41876e-09
1.93241e-09
1.39499e-09
3.40757e-10
4.13024e-09
-1.06092e-08
2.5963e-09
-3.89212e-07
1.92083e-09
2.68141e-09
-1.93615e-06
6.38338e-09
8.0081e-09
3.0677e-09
-1.51733e-09
6.57777e-09
8.32604e-09
3.1978e-09
-1.45624e-09
5.40159e-09
1.83564e-08
-1.91014e-06
2.8537e-08
-1.82132e-06
4.51882e-11
-5.74223e-09
-5.37118e-09
-1.99303e-06
5.0435e-09
4.22508e-09
3.05582e-09
-1.01707e-09
1.23695e-08
1.1135e-08
6.29648e-09
3.97531e-09
1.82587e-08
6.47867e-09
-1.91321e-06
2.19487e-08
2.22363e-08
-1.71373e-06
2.8858e-08
-1.4142e-06
3.61792e-10
3.2708e-09
-1.05309e-08
-3.10037e-10
-3.05718e-07
5.75609e-09
-1.92283e-06
8.03435e-09
5.64078e-09
2.92506e-09
2.01683e-09
7.49018e-10
2.98921e-08
-1.82503e-06
4.08761e-10
3.10928e-08
-1.42188e-06
3.16696e-10
-9.61835e-07
1.28725e-10
-1.01411e-09
3.01231e-07
1.20743e-09
-2.42493e-10
-5.9672e-09
-2.96229e-07
3.84915e-07
1.56747e-09
-1.8539e-09
-3.04628e-09
-3.81582e-07
-9.73521e-09
9.20295e-09
-5.00303e-07
3.36085e-09
4.16687e-09
-5.12954e-10
-2.39988e-09
3.35253e-09
3.98941e-09
5.0877e-10
-3.17978e-09
-5.02869e-07
-4.9791e-07
-4.99077e-07
3.80076e-08
-4.96146e-07
4.98836e-09
4.11057e-09
-1.32063e-09
-2.02099e-09
-4.93101e-07
-4.94617e-07
-4.89176e-07
-5.36439e-12
3.84641e-07
1.40709e-09
-3.17333e-09
-1.43681e-09
-3.81438e-07
6.98032e-09
9.14627e-09
-4.77272e-07
2.38931e-09
4.66278e-09
-1.73515e-09
-6.88693e-09
2.58493e-09
4.9253e-09
-1.65168e-09
-6.88296e-09
-4.90356e-07
-4.91101e-07
-4.9095e-07
6.35448e-09
3.7094e-08
-4.90949e-07
-4.88958e-07
-4.83046e-07
-4.74451e-07
5.99964e-08
-4.77482e-07
-4.68969e-07
-4.52282e-07
-4.38341e-07
1.24226e-10
8.64738e-09
-3.42368e-09
-5.0222e-07
2.78474e-09
3.59452e-09
-2.97642e-10
-3.66568e-09
3.76595e-09
5.02392e-09
-4.35211e-10
-2.37129e-09
-4.9909e-07
-5.04399e-07
-5.0094e-07
3.5795e-08
8.62552e-09
-4.91481e-07
-4.83456e-07
-4.89995e-07
-4.74907e-07
3.87142e-08
3.85131e-08
-4.5852e-07
-4.34018e-07
-4.34487e-07
-3.91043e-07
4.63829e-08
-3.82971e-07
-3.5977e-07
-3.24301e-07
-2.95323e-07
4.95085e-10
3.00171e-07
6.60529e-10
-5.62752e-09
4.27048e-11
-2.95247e-07
3.64005e-08
-4.95603e-07
5.79082e-09
4.98118e-09
-1.54583e-09
-1.76966e-09
-4.94787e-07
-4.91433e-07
-4.88591e-07
3.05097e-10
6.08641e-08
-4.78364e-07
-4.53157e-07
-4.70152e-07
-4.39604e-07
4.07476e-10
4.92805e-08
-3.85004e-07
-3.26782e-07
-3.62225e-07
-2.98201e-07
4.32259e-10
-2.44789e-07
-2.1691e-07
-2.17856e-07
-1.85659e-07
1.32152e-10
-1.08914e-09
2.93611e-07
1.37023e-09
-2.50788e-10
-3.07812e-09
-2.91653e-07
3.80406e-07
1.46644e-09
-1.31174e-09
-1.18715e-09
-3.79374e-07
1.67227e-09
1.6392e-09
-1.81108e-09
-2.01964e-10
-5.01602e-07
1.11276e-09
1.59749e-09
4.01172e-10
3.87326e-10
-4.99645e-07
3.80397e-07
1.29851e-09
-1.32339e-09
-8.0884e-10
-3.79563e-07
4.3054e-10
5.66824e-10
-5.53166e-10
-2.96884e-10
-4.7742e-07
-1.63775e-09
1.01863e-09
-7.36998e-10
1.9857e-09
-4.91578e-07
-3.71028e-09
2.93238e-09
2.84708e-10
6.54308e-09
-4.83532e-07
8.49996e-10
2.0487e-09
-6.28132e-10
-5.50837e-10
-5.0394e-07
6.15348e-10
-1.33396e-09
1.81935e-09
-1.20041e-10
-4.92462e-07
-1.84242e-09
-1.52158e-09
4.58572e-09
5.00865e-09
-4.6475e-07
-7.84984e-09
-1.73331e-09
4.08578e-09
1.42688e-08
-3.91742e-07
2.92767e-07
1.13455e-09
-2.92769e-09
-1.71675e-10
-2.90802e-07
7.95488e-10
5.91313e-10
-3.8325e-10
1.51318e-10
-4.96758e-07
2.03047e-09
-1.84211e-09
6.00018e-09
-1.34387e-10
-4.84418e-07
-2.15085e-09
-8.02656e-09
1.46563e-08
4.36684e-09
-3.9385e-07
-8.39443e-09
-9.1467e-09
8.8684e-09
8.11575e-09
-2.44232e-07
2.89816e-07
1.5732e-09
-5.12891e-10
-2.56315e-09
-2.88313e-07
3.79986e-07
-1.18306e-10
8.06355e-10
1.37635e-09
-3.8205e-07
5.61366e-10
-9.80003e-10
5.05183e-07
6.02953e-10
1.96267e-09
-5.0733e-07
1.13808e-09
5.02856e-07
8.40123e-11
2.00414e-10
5.17188e-10
-5.04796e-07
3.80069e-07
-1.90144e-10
6.92598e-10
1.105e-09
-3.81676e-07
-2.13011e-09
-1.84454e-09
4.78743e-07
2.73186e-09
3.00202e-09
-4.80502e-07
4.92965e-07
-4.00385e-09
-2.48407e-09
2.32059e-09
5.73864e-09
-4.94537e-07
4.86884e-07
-2.23844e-09
-4.48915e-10
6.274e-10
7.41478e-09
-4.92239e-07
-1.23629e-09
5.61926e-10
5.07007e-07
1.68777e-09
9.10331e-10
-5.08931e-07
4.94473e-07
-2.89465e-09
-3.94931e-09
5.60898e-09
2.9193e-09
-4.96157e-07
4.63898e-07
-6.41833e-09
-6.20758e-09
7.0697e-09
7.43828e-09
-4.6578e-07
3.89874e-07
-1.08429e-08
-4.57288e-09
4.26364e-09
1.43466e-08
-3.93069e-07
2.89365e-07
5.22118e-10
1.9069e-09
-1.64806e-10
-2.9163e-07
-2.93919e-09
4.987e-07
-3.01391e-10
3.86058e-09
3.49644e-10
-4.99669e-07
4.87205e-07
-1.28918e-09
-4.73903e-09
7.41718e-09
7.16256e-10
-4.89311e-07
3.9214e-07
-5.03877e-09
-1.10088e-08
1.48698e-08
4.52262e-09
-3.95485e-07
2.34762e-07
-1.0931e-08
-1.16276e-08
8.12183e-09
7.51792e-09
-2.27843e-07
2.90214e-07
-1.9562e-10
-6.44891e-12
2.51873e-09
-2.92531e-07
3.8393e-07
-5.98008e-10
1.22411e-09
9.05297e-10
-3.85461e-07
-1.46978e-10
-1.33175e-09
5.09553e-07
8.86021e-10
4.4218e-10
-5.09403e-07
-3.49865e-09
5.05427e-07
3.67522e-10
1.30616e-11
4.25054e-09
-5.0656e-07
3.83272e-07
-6.18236e-10
1.97272e-09
1.07036e-09
-3.85697e-07
-2.31829e-09
-2.26419e-09
4.82706e-07
3.25945e-09
3.73522e-09
-4.85118e-07
4.96812e-07
-3.62559e-09
-3.39363e-09
3.31455e-09
7.24097e-09
-5.00348e-07
4.95014e-07
-5.27734e-09
-2.17871e-09
1.15513e-09
8.66349e-09
-4.97377e-07
-1.01845e-09
-1.43752e-09
5.09858e-07
1.77366e-09
6.84681e-10
-5.0986e-07
4.98372e-07
-3.85507e-09
-3.71701e-09
7.08495e-09
4.09741e-09
-5.01982e-07
4.67312e-07
-9.5532e-09
-9.26397e-09
1.04292e-08
1.10357e-08
-4.69959e-07
3.91576e-07
-1.46622e-08
-8.61454e-09
5.54884e-09
1.80396e-08
-3.91888e-07
2.94357e-07
-4.24083e-10
2.75553e-09
9.6698e-11
-2.96785e-07
-4.05517e-09
5.01495e-07
3.07884e-12
5.46391e-09
3.70373e-10
-5.03277e-07
4.8837e-07
-3.17456e-09
-7.37223e-09
1.06977e-08
1.97804e-09
-4.90499e-07
3.93906e-07
-9.63552e-09
-1.50597e-08
1.80884e-08
5.85324e-09
-3.93152e-07
2.16649e-07
-1.47213e-08
-1.44275e-08
8.96657e-09
8.66486e-09
-2.05131e-07
2.94748e-07
-5.94049e-10
4.0461e-11
2.971e-09
-2.97166e-07
3.88164e-07
-3.4694e-10
3.24001e-10
2.04112e-09
-3.90182e-07
-2.72987e-09
-1.23536e-09
5.09947e-07
1.22544e-09
3.07424e-09
-5.10282e-07
-4.72557e-09
5.07393e-07
-9.84052e-10
3.93205e-10
6.5971e-09
-5.08674e-07
3.88492e-07
-6.20642e-10
1.92869e-09
8.06679e-10
-3.90607e-07
-1.95797e-09
-2.44264e-09
4.85663e-07
2.89529e-09
2.71957e-09
-4.86878e-07
5.03667e-07
-2.89173e-09
-3.10577e-09
2.80529e-09
5.9315e-09
-5.06406e-07
4.98806e-07
-8.23674e-09
-1.97309e-09
7.52995e-10
1.09664e-08
-5.00316e-07
-1.82829e-09
-3.45617e-09
5.11089e-07
3.1017e-09
1.60746e-09
-5.10514e-07
5.04541e-07
-2.96637e-09
-4.19942e-09
6.57115e-09
2.55287e-09
-5.06499e-07
4.72806e-07
-1.02416e-08
-9.68274e-09
1.20295e-08
1.2957e-08
-4.77869e-07
3.91206e-07
-1.66664e-08
-1.08005e-08
5.42114e-09
2.17936e-08
-3.90954e-07
2.99955e-07
-1.05449e-09
5.01673e-09
9.98861e-11
-3.04017e-07
-5.23397e-09
5.03962e-07
-9.41099e-10
6.21542e-09
-3.14462e-10
-5.03688e-07
4.92715e-07
-2.08977e-09
-8.50147e-09
1.2414e-08
1.05782e-09
-4.95595e-07
3.92231e-07
-1.26523e-08
-1.69322e-08
2.19148e-08
6.83398e-09
-3.91396e-07
1.89962e-07
-1.86097e-08
-1.89305e-08
1.04293e-08
9.94067e-09
-1.72792e-07
3.00965e-07
-1.17923e-09
1.37504e-10
5.56281e-09
-3.05486e-07
3.92577e-07
1.62962e-10
2.24378e-10
2.22203e-09
-3.95187e-07
-2.29192e-09
-9.49663e-10
5.11037e-07
1.33657e-09
3.25279e-09
-5.12385e-07
-5.23308e-09
5.09067e-07
-1.4262e-09
1.55582e-10
5.42583e-09
-5.0799e-07
3.91498e-07
3.50428e-10
1.31965e-09
5.55635e-10
-3.93724e-07
-1.24542e-09
-1.02079e-09
4.88921e-07
2.25739e-09
1.86909e-09
-4.90781e-07
5.06546e-07
-5.06308e-09
-3.15678e-09
2.68288e-09
7.00408e-09
-5.08013e-07
5.01907e-07
-8.16373e-09
-1.11716e-09
-7.53604e-10
1.24278e-08
-5.043e-07
-1.5448e-09
-2.5814e-09
5.10542e-07
3.56232e-09
1.67439e-09
-5.11653e-07
5.07716e-07
-3.61313e-09
-4.75184e-09
6.96238e-09
2.96015e-09
-5.09273e-07
4.84471e-07
-1.02075e-08
-9.84794e-09
1.35372e-08
1.34857e-08
-4.91438e-07
3.92259e-07
-1.80468e-08
-1.37064e-08
7.68016e-09
2.45377e-08
-3.92724e-07
3.06856e-07
1.14777e-10
1.34944e-09
3.09913e-11
-3.08351e-07
-1.77597e-09
5.04516e-07
-8.96312e-10
3.74273e-09
9.16257e-10
-5.06503e-07
4.99504e-07
-6.33609e-10
-6.52247e-09
1.09521e-08
1.74498e-10
-5.03474e-07
3.90259e-07
-1.31547e-08
-1.90594e-08
2.53082e-08
7.62856e-09
-3.90982e-07
1.53912e-07
-2.22333e-08
-2.2616e-08
1.23069e-08
1.18127e-08
-1.33182e-07
3.08781e-07
2.23738e-10
-1.40535e-10
-4.06921e-12
-3.0886e-07
3.95332e-07
2.34873e-10
-2.47127e-10
-2.61875e-11
-3.95293e-07
-3.00081e-09
-1.05866e-09
5.12807e-07
1.06069e-09
2.55683e-09
-5.12365e-07
-1.59164e-10
5.07771e-07
-5.72969e-10
-6.48454e-10
1.74443e-09
-5.08135e-07
3.95948e-07
2.28588e-10
-1.15476e-10
-4.38442e-10
-3.95622e-07
1.29242e-10
2.5492e-10
4.91853e-07
6.59168e-10
7.12399e-10
-4.93609e-07
5.10814e-07
-3.22981e-09
9.72987e-12
8.44201e-10
5.82032e-09
-5.14259e-07
5.08424e-07
-4.43644e-09
-1.38096e-10
-1.3149e-09
9.06576e-09
-5.11601e-07
-1.02432e-09
-1.54503e-09
5.13656e-07
1.30442e-09
2.46555e-10
-5.12638e-07
5.12245e-07
-3.91425e-10
-2.4332e-09
5.28271e-09
1.69787e-09
-5.16401e-07
4.99172e-07
-7.45136e-09
-8.42357e-09
1.18379e-08
1.19154e-08
-5.0705e-07
3.92139e-07
-1.80103e-08
-1.36411e-08
7.13607e-09
2.57334e-08
-3.93357e-07
3.08749e-07
2.21927e-10
2.14304e-10
-7.48943e-11
-3.0911e-07
-6.36542e-10
5.08064e-07
-6.18568e-10
1.32267e-09
4.29541e-10
-5.08562e-07
5.07507e-07
-8.64348e-10
-4.3399e-09
9.05215e-09
-3.45996e-10
-5.11009e-07
3.92683e-07
-1.3572e-08
-1.82489e-08
2.69845e-08
7.45616e-09
-3.95303e-07
1.11713e-07
-2.37897e-08
-2.42596e-08
1.34515e-08
1.32043e-08
-9.03191e-08
3.09201e-07
1.09514e-10
-1.35366e-10
3.96895e-10
-3.09572e-07
3.9566e-07
6.90473e-11
1.30335e-10
1.05303e-09
-3.96913e-07
-9.91516e-10
-8.61004e-10
5.1342e-07
5.91303e-10
3.39346e-09
-5.15552e-07
-2.48063e-09
5.07576e-07
-1.2339e-10
1.34546e-10
2.73699e-09
-5.07844e-07
3.95841e-07
-2.81627e-11
1.07695e-09
9.22185e-11
-3.96982e-07
-2.47808e-09
-2.45567e-09
4.95928e-07
2.36705e-09
2.70481e-09
-4.96066e-07
5.15847e-07
-3.67097e-09
-2.24656e-09
-3.19213e-10
4.06581e-09
-5.13676e-07
5.13602e-07
-1.41259e-09
7.82537e-10
9.17599e-11
2.92914e-10
-5.13356e-07
-6.90125e-10
-1.08253e-09
5.13627e-07
3.80674e-09
3.74662e-10
-5.16035e-07
5.18145e-07
-2.43392e-09
-4.00824e-09
3.22434e-09
-2.83953e-10
-5.14644e-07
5.12876e-07
-5.35871e-09
-3.67933e-09
6.32387e-09
6.51227e-09
-5.16674e-07
3.99536e-07
-7.38609e-09
-1.06716e-08
6.34864e-09
4.0907e-09
5.14255e-09
6.51973e-09
5.4884e-09
-8.8875e-08
-1.12585e-07
-1.081e-07
-9.95076e-08
3.09305e-07
8.66554e-11
4.57307e-10
-1.44021e-10
-3.09705e-07
-2.44316e-09
5.09393e-07
-3.2592e-10
2.66919e-09
2.20593e-10
-5.09514e-07
5.13101e-07
3.51801e-10
-1.90981e-09
9.55284e-10
7.37867e-10
-5.13237e-07
3.99343e-07
-1.01925e-08
-7.46992e-09
6.46368e-09
3.92098e-09
5.35596e-09
6.89369e-09
5.35402e-09
-8.88967e-08
-1.12956e-07
-9.95695e-08
-1.08247e-07
2.36099e-08
-3.61742e-09
-3.2881e-09
2.70983e-09
3.10179e-09
-2.2516e-08
3.10315e-07
1.17931e-10
-3.10455e-10
-5.29588e-10
-3.09592e-07
3.98802e-07
2.55805e-10
-8.37183e-11
-6.16077e-10
-3.98358e-07
6.52773e-10
4.71593e-10
5.19608e-07
-9.03836e-10
-7.64736e-10
-5.19063e-07
1.18386e-09
5.07088e-07
-1.0642e-09
3.61645e-10
-3.10731e-09
-5.04462e-07
3.98941e-07
7.06776e-11
-7.53449e-10
2.32164e-10
-3.9849e-07
1.61393e-10
7.0216e-10
4.96422e-07
-1.31824e-09
-9.12101e-10
-4.95056e-07
5.10028e-07
2.76743e-09
2.85303e-09
-5.25954e-09
-5.36439e-09
-5.05024e-07
5.08919e-07
7.29984e-09
5.56733e-09
-3.04292e-09
-1.32769e-08
-5.05466e-07
3.81752e-10
8.00261e-10
5.19953e-07
-8.32265e-10
-2.24951e-10
-5.20077e-07
5.10916e-07
2.84054e-09
2.50233e-09
-5.18888e-09
-5.37667e-09
-5.05693e-07
5.18351e-07
8.03712e-09
7.60366e-09
-1.80793e-09
-2.02975e-09
-5.19848e-07
-2.18552e-09
-2.6326e-09
-1.01579e-09
-1.89043e-09
-2.0555e-09
-5.26378e-10
2.38974e-10
-1.15033e-07
3.60149e-09
9.05288e-11
1.08741e-07
8.25863e-11
3.57653e-10
7.86498e-10
1.13479e-09
3.1041e-07
9.41855e-11
-4.93141e-10
-4.1376e-10
-3.09597e-07
8.97599e-10
5.08305e-07
-4.15709e-10
-3.10628e-09
-1.5996e-09
-5.04081e-07
5.08642e-07
5.81741e-09
7.21059e-09
-1.27628e-08
-5.36416e-09
-5.03543e-07
3.98447e-09
-2.49971e-10
-1.22676e-07
1.54137e-09
-1.61247e-09
1.19012e-07
5.95551e-09
-2.63713e-09
-2.16598e-09
1.12684e-09
1.20884e-09
-3.48809e-09
-2.36023e-07
-4.4164e-09
-9.59108e-09
-2.891e-09
-3.20716e-09
-2.29925e-07
-6.88938e-09
-1.88793e-07
-1.48631e-09
-4.15608e-07
-5.53202e-07
-3.78799e-09
-2.36469e-09
-1.70456e-09
-1.84724e-07
-3.40016e-09
-4.09462e-07
-2.26405e-09
-5.53941e-07
-8.81783e-09
-3.66104e-07
1.19289e-09
-7.97149e-10
-4.6977e-07
-4.75774e-07
5.10842e-10
-4.40617e-10
-6.03579e-09
-5.90199e-09
-3.61065e-07
4.22335e-10
-6.92861e-10
-4.75444e-07
-4.81199e-07
2.24416e-10
-5.0747e-09
-1.87735e-07
-5.30985e-09
-1.87705e-07
-4.443e-07
-6.52224e-09
-6.42516e-09
-2.64458e-09
-1.84215e-09
-1.83248e-07
-2.80314e-09
-1.69525e-09
-1.83206e-07
-3.68094e-09
-3.51616e-09
-4.4255e-07
-9.41048e-09
-5.71122e-07
-4.01499e-09
-4.53572e-07
-4.79686e-07
-1.04576e-09
-5.46905e-09
-4.15979e-09
-5.6779e-07
-1.8124e-09
-4.57841e-07
-4.87913e-07
-2.35139e-07
-9.91642e-09
-4.84874e-09
-3.44274e-09
-2.55254e-09
-2.29144e-07
-3.89384e-09
-4.53586e-07
-9.64058e-09
-5.70611e-07
-4.79399e-07
-5.56949e-09
-6.96771e-10
-1.53461e-09
-4.57939e-07
-4.2225e-09
-5.67473e-07
-4.8763e-07
5.08888e-10
-4.13946e-07
-8.12234e-09
-1.88431e-07
-5.53385e-07
-3.75178e-09
-2.56796e-09
-4.07635e-07
-3.17532e-09
-1.74634e-09
-1.83509e-07
-2.36404e-09
-5.52789e-07
-8.07718e-10
-4.70707e-07
-9.21875e-09
-3.66086e-07
1.21626e-09
-4.76362e-07
5.86067e-10
-6.76731e-09
-5.25739e-10
-9.14811e-10
-4.75998e-07
-6.39343e-09
-3.60518e-07
2.99669e-10
-4.81984e-07
3.30834e-10
-2.26212e-07
-2.47008e-09
-1.24318e-09
-1.91323e-09
5.31354e-10
-2.2483e-07
-2.56819e-09
-1.80948e-07
-2.6667e-09
-4.05905e-07
-5.52891e-07
-2.11803e-09
-9.93143e-10
-1.0621e-09
-1.78893e-07
-2.97282e-09
-4.05358e-07
-2.35263e-09
-5.56905e-07
-6.0118e-09
-3.55463e-07
1.67364e-10
-6.19262e-10
-4.77922e-07
-4.83784e-07
6.42761e-11
-2.52188e-10
-3.42698e-09
-3.21921e-09
-3.52577e-07
8.09217e-11
-9.26271e-10
-4.84096e-07
-4.89948e-07
-1.70582e-12
-1.21595e-09
-1.80465e-07
-1.36433e-09
-1.80435e-07
-4.40892e-07
-2.19391e-09
-2.04491e-09
-3.39533e-10
-1.14274e-09
-1.78983e-07
-4.87825e-10
-9.8888e-10
-1.78958e-07
-5.42744e-10
-3.37268e-10
-4.40839e-07
-2.77285e-09
-5.64762e-07
-1.80177e-09
-4.58891e-07
-4.83835e-07
-1.37513e-09
-9.43108e-10
1.57756e-09
-5.66674e-07
3.01206e-10
-4.62413e-07
-4.92023e-07
-2.25831e-07
-1.50116e-09
-1.81144e-09
2.004e-10
-1.1068e-09
-2.24925e-07
-1.53033e-09
-4.59042e-07
-2.89492e-09
-5.64731e-07
-4.83535e-07
-1.07154e-09
-9.58222e-10
5.93654e-10
-4.62696e-07
1.40726e-09
-5.67194e-07
-4.92083e-07
-1.12666e-09
-4.04553e-07
-2.94136e-09
-1.79907e-07
-5.5041e-07
-1.423e-09
-6.50564e-10
-4.05445e-07
-1.41336e-09
-4.32848e-10
-1.78061e-07
-3.54531e-10
-5.5449e-07
-4.37019e-10
-4.76821e-07
-5.8122e-09
-3.54729e-07
6.66093e-11
-4.83389e-07
1.37219e-10
-3.03873e-09
1.25958e-10
2.34778e-10
-4.81995e-07
-3.04928e-09
-3.51574e-07
1.93311e-11
-4.88039e-07
6.53318e-11
-2.23593e-07
-1.37455e-09
1.37831e-10
-8.10313e-10
-9.96939e-10
-2.21786e-07
-7.67725e-10
-1.76755e-07
-1.02464e-09
-4.04036e-07
-5.58288e-07
-1.09676e-09
6.87903e-10
-1.44914e-09
-2.26627e-09
-1.7304e-07
-1.35453e-09
-4.01826e-07
-1.66535e-09
-1.78345e-09
-5.57412e-07
-1.89606e-09
-2.6314e-09
-3.50229e-07
3.25846e-11
2.67817e-10
-4.87426e-07
-4.91671e-07
-5.96348e-10
-4.4538e-11
-9.78652e-10
-3.12426e-09
-2.49446e-09
-3.48681e-07
-3.23485e-11
-2.86511e-10
-4.90392e-07
-1.65479e-09
-4.92814e-07
-1.51762e-09
-1.19989e-10
1.48856e-10
-1.77665e-07
-3.04894e-12
-1.77657e-07
-4.40678e-07
-1.05264e-10
9.0136e-11
9.52765e-11
4.21445e-12
-1.77765e-07
-1.43995e-10
1.23648e-10
-1.77636e-07
3.7168e-10
5.34597e-10
-4.41633e-07
9.84838e-10
-5.67194e-07
9.85802e-10
-4.6426e-07
-4.95527e-07
1.32405e-09
4.15042e-09
-2.55177e-10
8.71577e-10
6.52587e-10
-5.68408e-07
-6.90311e-10
4.76252e-10
-4.65628e-07
2.13471e-09
-4.96889e-07
5.07653e-10
1.98308e-09
-2.23992e-07
-3.84073e-10
-5.49433e-10
-1.05519e-09
-6.0378e-10
-2.22333e-07
1.27792e-09
-4.6464e-07
7.6596e-10
-5.68302e-07
-4.95863e-07
4.03904e-09
1.78532e-09
6.22777e-10
6.38089e-12
7.32457e-10
-4.66183e-07
1.96793e-09
2.78826e-10
-5.69705e-07
7.49391e-11
-4.97789e-07
1.77399e-09
1.16309e-09
4.16227e-10
-4.04362e-07
-1.08366e-09
-1.75843e-07
-5.55389e-07
-2.5622e-10
4.87464e-10
-1.3718e-09
-4.01955e-07
-1.6389e-09
-9.91076e-10
-2.37093e-09
-1.72481e-07
-2.03294e-09
-5.54179e-07
-1.53963e-09
4.90929e-10
-4.84874e-07
-2.34523e-09
-3.49324e-07
-7.59355e-11
-4.90073e-07
1.39375e-10
4.00672e-11
-2.87022e-09
-9.3713e-10
-4.35028e-10
-4.8838e-07
-9.61806e-10
-2.41249e-09
-3.47812e-07
-3.71023e-11
-4.92319e-07
-5.86872e-10
-1.46327e-11
-2.22263e-07
1.84978e-10
2.92368e-10
5.70195e-10
-1.33589e-09
-2.21497e-07
-8.82145e-10
-1.70584e-07
3.11513e-10
-4.01391e-07
-5.5703e-07
-1.08221e-09
1.28778e-10
8.47061e-10
-2.08233e-10
-1.71223e-07
1.10821e-10
-4.00148e-07
-7.83907e-10
-7.85988e-10
-5.55434e-07
1.4871e-10
-2.16893e-09
-3.46672e-07
-3.53162e-10
-1.02785e-10
-4.92797e-07
-4.94274e-07
-6.09833e-10
-2.02149e-10
-1.82683e-10
1.87558e-09
2.28506e-09
-3.48883e-07
-2.55868e-10
-3.10255e-10
-4.93609e-07
2.2125e-09
-4.9534e-07
3.20489e-09
-1.64342e-10
1.39989e-09
-1.79283e-07
9.15828e-10
-1.78742e-07
-4.4436e-07
2.44884e-09
2.5943e-09
2.64114e-10
1.01518e-09
-1.80562e-07
2.61248e-10
9.15054e-10
-1.79918e-07
1.71928e-09
1.93368e-09
-4.47488e-07
2.84221e-09
-5.71132e-07
3.51317e-09
-4.67446e-07
-4.98748e-07
2.8998e-09
5.31481e-09
1.77953e-09
1.11512e-09
1.0812e-09
-5.73361e-07
1.59204e-09
2.44171e-09
-4.70314e-07
3.26067e-09
-5.01745e-07
2.78428e-09
3.73484e-09
-2.21981e-07
-4.19087e-10
6.70752e-11
-4.86037e-10
1.2904e-11
-2.21507e-07
3.65955e-09
-4.684e-07
2.1667e-09
-5.72422e-07
-5.00333e-07
5.06341e-09
3.30703e-09
1.06149e-09
1.44977e-09
2.58356e-09
-4.70898e-07
2.90904e-09
1.13554e-09
-5.73522e-07
9.28368e-10
-5.02769e-07
3.39034e-09
2.76449e-09
1.57483e-10
-4.01483e-07
1.71737e-09
-1.73676e-07
-5.54809e-07
3.03024e-12
2.50168e-09
-7.69091e-10
-4.01781e-07
1.07976e-09
1.87893e-09
2.55054e-10
-1.7581e-07
-2.67524e-10
-5.56483e-07
3.05164e-09
2.94718e-10
-4.89704e-07
1.64107e-09
-3.49241e-07
-3.76892e-10
-4.93582e-07
3.36512e-09
-1.66295e-10
2.98267e-09
2.64049e-14
-1.69756e-11
-4.9147e-07
4.49748e-09
2.52989e-09
-3.51575e-07
-1.95388e-10
-4.95428e-07
4.47298e-09
-1.13415e-10
-2.21931e-07
2.45073e-10
1.88495e-10
2.87095e-10
9.0119e-10
-2.23119e-07
1.64069e-09
-1.7306e-07
4.1609e-10
-4.00466e-07
-5.55478e-07
1.15138e-10
1.98505e-09
1.73622e-09
4.94561e-10
-1.7529e-07
1.00102e-10
-4.02133e-07
1.85461e-09
9.1988e-10
-5.57851e-07
3.28993e-09
2.62492e-09
-3.51365e-07
-1.50103e-10
1.81695e-10
-4.94656e-07
-4.96995e-07
4.58107e-09
-1.19464e-10
5.22677e-12
2.70641e-09
2.25789e-09
-3.53546e-07
-7.10279e-11
3.10744e-10
-4.96153e-07
4.8126e-09
-4.99153e-07
4.7928e-09
-6.57543e-11
9.47045e-10
-1.82107e-07
1.54039e-09
-1.82077e-07
-4.50408e-07
2.60175e-09
2.80529e-09
1.59906e-09
1.05582e-09
-1.84762e-07
1.62258e-09
1.18431e-09
-1.84884e-07
2.8499e-09
3.05201e-09
-4.53088e-07
7.99833e-10
-5.7408e-07
3.25496e-09
-4.7238e-07
-5.0456e-07
2.95814e-09
3.9119e-09
7.59489e-10
2.99862e-09
2.46028e-09
-5.76183e-07
1.30332e-09
2.4798e-09
-4.72328e-07
3.31587e-09
-5.05495e-07
2.61633e-09
3.2588e-09
-2.22241e-07
6.59082e-10
7.42725e-11
1.23274e-09
2.65428e-10
-2.23739e-07
3.69297e-09
-4.72077e-07
1.79427e-09
-5.74606e-07
-5.04153e-07
3.76961e-09
3.10165e-09
3.46289e-09
5.1683e-10
2.61207e-09
-4.71491e-07
3.31654e-09
3.26878e-09
-5.77174e-07
1.04915e-09
-5.0404e-07
3.42264e-09
2.3445e-09
3.00383e-10
-4.03445e-07
1.87038e-09
-1.78104e-07
-5.58355e-07
4.64485e-10
3.57792e-09
5.23124e-10
-4.0677e-07
3.06806e-09
2.27701e-09
8.35376e-10
-1.81217e-07
1.17221e-09
-5.61117e-07
4.38969e-09
2.82657e-10
-4.92588e-07
2.18925e-09
-3.53618e-07
-4.91678e-11
-4.97172e-07
4.25778e-09
-4.19029e-11
3.90796e-09
9.70636e-11
1.6982e-10
-4.92539e-07
4.8622e-09
3.02974e-09
-3.57206e-07
6.55362e-10
-4.98199e-07
4.29397e-09
-6.76852e-11
-2.2513e-07
3.94529e-10
1.61651e-09
6.75149e-10
2.02069e-09
-2.27826e-07
2.01587e-09
-1.779e-07
6.00244e-10
-4.05069e-07
-5.60846e-07
1.33568e-09
4.27525e-09
2.5176e-09
8.93069e-10
-1.81311e-07
7.33464e-10
-4.08793e-07
3.66574e-09
1.70046e-09
-5.64061e-07
4.76562e-09
2.19592e-09
-3.54943e-07
-7.58618e-10
4.72781e-10
-4.97045e-07
-5.00909e-07
4.5156e-09
-9.07998e-11
6.91869e-11
4.62336e-09
4.50483e-09
-3.59404e-07
2.49771e-11
4.8664e-10
-4.96316e-07
5.10867e-09
-5.00364e-07
4.51055e-09
-6.47722e-11
1.5336e-09
-1.86643e-07
1.17363e-09
-1.86678e-07
-4.55123e-07
2.33879e-09
2.40328e-09
2.61603e-10
-3.42219e-10
-1.86562e-07
2.18433e-11
2.46487e-10
-1.86947e-07
4.14484e-10
8.2253e-10
-4.56076e-07
2.11467e-09
-5.77593e-07
2.64853e-09
-4.72554e-07
-5.05391e-07
2.50954e-09
2.14989e-09
2.43944e-10
1.80954e-09
3.96161e-09
-5.81205e-07
1.91531e-09
1.97661e-09
-4.73749e-07
1.44184e-09
-5.05201e-07
3.0265e-09
2.72197e-09
-2.26638e-07
1.88447e-09
1.01489e-09
1.87947e-09
1.13249e-09
-2.2965e-07
2.66213e-09
-4.72264e-07
1.82637e-09
-5.78137e-07
-5.05119e-07
3.14835e-09
2.41997e-09
2.87214e-10
8.5003e-10
1.76045e-09
-4.74358e-07
1.44324e-09
1.73002e-09
-5.79455e-07
2.31671e-09
-5.06931e-07
2.48208e-09
2.81965e-09
9.25429e-10
-4.10137e-07
2.91348e-09
-1.85185e-07
-5.63681e-07
1.691e-09
4.71167e-09
1.27915e-09
-4.1466e-07
4.37622e-09
2.09422e-09
9.33904e-10
-1.88213e-07
1.51838e-09
-5.6613e-07
4.30479e-09
1.7792e-10
-4.91244e-07
4.18961e-09
-3.60708e-07
-5.88011e-10
-4.98318e-07
4.71584e-09
-2.29668e-10
3.56408e-09
2.08307e-10
8.19377e-10
-4.90516e-07
3.53521e-09
4.45992e-09
-3.6513e-07
1.70138e-10
-4.97741e-07
4.39259e-09
3.10355e-10
-2.29024e-07
2.45713e-10
9.52591e-10
8.03984e-10
1.93764e-09
-2.31766e-07
2.80672e-09
-1.85297e-07
1.04849e-09
-4.11888e-07
-5.66756e-07
2.06738e-09
4.48291e-09
2.23788e-09
8.86108e-10
-1.88421e-07
1.36241e-09
-4.16143e-07
3.69643e-09
1.60951e-09
-5.6823e-07
3.46457e-09
5.97406e-09
-3.65307e-07
6.70309e-11
5.02502e-10
-4.94421e-07
-4.99115e-07
5.28018e-09
-5.24158e-11
2.14532e-12
4.17901e-09
4.08245e-09
-3.69521e-07
1.33176e-10
2.70452e-10
-4.91807e-07
2.90405e-09
-4.97946e-07
3.21404e-09
-3.01687e-11
7.82397e-10
-1.87181e-07
1.13597e-10
-1.8671e-07
-4.56193e-07
7.75557e-10
2.37327e-10
2.17429e-10
-1.85946e-10
-1.87213e-07
4.56815e-10
1.00267e-10
-1.87267e-07
-6.95493e-10
-4.28022e-10
-4.54395e-07
3.25925e-09
-5.84237e-07
2.08244e-09
-4.74079e-07
-5.05714e-07
2.3924e-09
3.46209e-09
-4.11087e-10
3.69854e-10
9.57557e-10
-5.84582e-07
9.14473e-10
7.76158e-11
-4.74146e-07
-3.36427e-10
-5.07788e-07
9.4455e-10
2.16476e-09
-2.31409e-07
1.21347e-09
5.45548e-10
2.93558e-10
6.79615e-11
-2.31771e-07
1.91787e-09
-4.75739e-07
2.85079e-09
-5.82081e-07
-5.08164e-07
2.83724e-09
3.16498e-09
1.82174e-09
5.02445e-10
1.45536e-09
-4.75821e-07
2.05771e-11
2.82458e-09
-5.84983e-07
8.73725e-10
-5.08838e-07
2.5913e-09
2.36266e-09
1.1319e-09
-4.17828e-07
4.51129e-11
-1.88143e-07
-5.68167e-07
6.16768e-10
2.59701e-09
2.45967e-10
-4.18396e-07
3.90287e-10
3.4871e-10
-1.28404e-10
-1.88363e-07
4.49291e-10
-5.68809e-07
7.8748e-10
7.08148e-10
-4.91034e-07
3.28368e-09
-3.68561e-07
1.7804e-10
-4.9664e-07
2.83921e-09
5.121e-11
3.9564e-10
-1.26221e-10
8.42961e-11
-4.91394e-07
1.12098e-09
3.76922e-10
-3.69071e-07
6.87855e-12
-4.97346e-07
1.29717e-09
-1.30038e-10
-2.34429e-07
5.63219e-10
2.09946e-09
-9.70334e-11
1.65717e-10
-2.34497e-07
1.00863e-10
-1.88298e-07
7.38835e-10
-4.19319e-07
-5.694e-07
4.14293e-10
1.59497e-09
4.22461e-10
-3.32016e-10
-1.88388e-07
9.94091e-11
-4.19533e-07
1.76878e-11
2.52693e-11
-5.69545e-07
6.42082e-10
-3.00528e-11
-3.69607e-07
-2.3918e-11
-6.15313e-11
-4.91495e-07
-4.98205e-07
1.86253e-10
-1.81768e-11
-1.96382e-10
2.04883e-10
1.13964e-10
-3.69923e-07
5.56537e-12
-2.77031e-11
-4.92269e-07
1.03253e-09
-4.99138e-07
9.6608e-10
5.30065e-11
1.1996e-10
-1.87098e-07
6.42176e-11
-1.87102e-07
-4.53503e-07
-3.03248e-10
-4.05387e-10
1.56707e-10
-2.43503e-10
-1.87011e-07
8.43327e-11
-1.73183e-10
-1.87014e-07
1.53234e-10
2.5684e-10
-4.53672e-07
1.35982e-09
-5.85148e-07
6.11066e-10
-4.74957e-07
-5.0827e-07
8.30355e-10
1.62201e-09
-3.23702e-11
1.55848e-10
6.79691e-10
-5.85734e-07
3.88021e-11
1.2412e-09
-4.76501e-07
6.11433e-10
-5.09181e-07
1.46116e-09
1.37079e-09
-2.34474e-07
2.09766e-09
6.05239e-10
1.66489e-10
-9.35037e-11
-2.34547e-07
5.36249e-10
-4.76624e-07
9.70611e-10
-5.85319e-07
-5.09786e-07
1.07845e-09
1.37597e-09
1.37085e-10
-9.1081e-11
1.11313e-09
-4.77697e-07
3.53973e-10
7.17793e-10
-5.857e-07
-2.61963e-10
-5.10004e-07
1.12851e-09
9.21141e-10
1.42071e-10
-4.19478e-07
3.10474e-10
-1.88452e-07
-5.6901e-07
3.61358e-10
2.91803e-10
1.47518e-11
-4.19788e-07
2.02094e-10
2.55287e-10
-2.89888e-10
-1.88417e-07
-5.95878e-11
-5.69497e-07
8.16624e-10
4.57007e-10
-4.91912e-07
3.02283e-10
-3.69483e-07
3.50278e-11
-4.97657e-07
9.2434e-10
1.45992e-10
3.47849e-11
-1.29416e-10
1.81579e-10
-4.93127e-07
1.00825e-09
8.91471e-11
-3.69732e-07
3.0559e-11
-4.9858e-07
1.12641e-09
6.74316e-11
-2.35164e-07
2.26113e-10
4.40128e-10
6.6824e-11
1.00859e-09
-2.36239e-07
4.26503e-10
-1.88705e-07
3.51033e-10
-4.2065e-07
-5.71294e-07
3.53855e-10
2.17265e-09
7.21783e-10
-3.14854e-11
-1.89396e-07
1.71928e-10
-4.22899e-07
2.14461e-09
1.09112e-09
-5.75039e-07
3.54747e-09
7.9637e-11
-3.70073e-07
-6.58462e-11
1.92793e-10
-4.94192e-07
-5.00414e-07
1.65601e-09
-1.08302e-10
-4.59199e-11
7.57085e-10
7.96879e-10
-3.70858e-07
-5.71504e-11
6.64447e-10
-4.95681e-07
2.673e-09
-5.00953e-07
2.06845e-09
-6.77794e-11
4.39329e-10
-1.87381e-07
3.47408e-10
-1.87389e-07
-4.54944e-07
9.73467e-10
1.08593e-09
7.24982e-10
9.05186e-11
-1.88197e-07
5.30269e-10
3.28824e-10
-1.88248e-07
1.94387e-09
2.42716e-09
-4.5806e-07
2.38952e-09
-5.88414e-07
1.42344e-09
-4.78376e-07
-5.11027e-07
2.24103e-09
3.41837e-09
2.25368e-10
1.75495e-09
4.04239e-09
-5.91927e-07
7.04693e-10
2.58765e-09
-4.8165e-07
4.38518e-09
-5.13146e-07
3.04886e-09
5.69973e-09
-2.35219e-07
3.9363e-10
2.78391e-10
6.16469e-10
5.21214e-10
-2.36356e-07
1.39784e-09
-4.79387e-07
2.58283e-09
-5.88487e-07
-5.1146e-07
3.49764e-09
1.93889e-09
1.48647e-09
8.00451e-10
3.33651e-09
-4.82926e-07
4.11545e-09
3.57238e-09
-5.92589e-07
1.94716e-09
-5.14126e-07
5.58075e-09
3.99426e-09
3.90983e-10
-4.20983e-07
4.01875e-10
-1.88733e-07
-5.71311e-07
4.19502e-10
2.18769e-09
8.76004e-10
-4.22983e-07
1.64492e-09
6.37203e-10
-1.44204e-11
-1.89355e-07
1.44655e-09
-5.74311e-07
3.06635e-09
-5.31201e-11
-4.9464e-07
2.07706e-10
-3.70091e-07
7.27357e-12
-5.00089e-07
1.69251e-09
-2.91035e-11
6.75961e-10
1.43779e-11
9.59388e-10
-4.9587e-07
2.39314e-09
8.45748e-10
-3.70955e-07
3.26742e-11
-5.00864e-07
2.21717e-09
3.63578e-10
-1.38111e-10
-2.31018e-10
-2.3587e-07
-2.20523e-10
-1.89057e-07
-1.77541e-10
-4.22207e-07
2.54232e-10
-9.10277e-10
-5.74781e-07
-9.35833e-10
-3.70194e-07
-3.86333e-11
-3.64472e-10
-4.94408e-07
-2.46528e-09
-4.99722e-07
-6.55522e-11
-9.54307e-11
-1.87846e-07
-2.84884e-10
-1.87893e-07
-4.05546e-10
1.77095e-10
-4.58212e-07
-3.66224e-10
-5.91404e-07
-4.27775e-10
-4.82082e-07
-5.61473e-10
-1.44454e-09
-5.11934e-07
-3.51611e-10
-9.74175e-11
-2.35907e-07
-5.12502e-11
-4.82749e-07
-3.74377e-10
-5.91953e-07
-1.4659e-09
-5.70154e-10
-5.12516e-07
1.26392e-10
-4.22407e-07
-2.4718e-10
-1.89014e-07
2.75645e-11
-8.25167e-10
-5.73634e-07
-1.23513e-09
-4.94203e-07
-8.91801e-10
-3.7043e-07
-4.70755e-11
-2.26421e-09
-5.00336e-07
-3.91043e-10
3.05233e-09
-5.05447e-07
1.14974e-09
-4.99575e-07
-5.01484e-07
1.04362e-10
6.50458e-09
-5.31259e-10
1.75633e-09
1.45947e-09
4.53741e-10
-5.09788e-07
2.77651e-10
3.80755e-09
-5.01396e-07
1.57848e-10
4.33733e-09
-5.04242e-07
2.11919e-09
-4.95369e-07
-4.66303e-11
1.69595e-09
-4.99532e-07
-4.92447e-07
7.13639e-09
-4.96396e-11
8.24133e-10
1.18598e-09
2.09527e-10
-4.96239e-07
-3.31762e-11
8.85282e-10
4.41554e-09
-5.03489e-07
3.9963e-09
-4.95322e-07
-2.65176e-11
5.35979e-09
-4.911e-07
5.1105e-09
-4.91854e-07
-4.92275e-07
5.65744e-09
6.13742e-09
2.59741e-09
2.82818e-09
3.05704e-09
2.21808e-09
-4.91794e-07
2.81515e-09
2.61899e-09
-4.92686e-07
2.74183e-09
3.21401e-09
-4.92358e-07
9.9198e-09
-4.90178e-07
6.96775e-09
-4.84213e-07
-4.74207e-07
4.14848e-09
1.24945e-08
1.01876e-09
6.39409e-09
6.88742e-09
3.46643e-10
-4.92056e-07
2.47781e-09
8.03267e-09
-4.85587e-07
1.75743e-09
8.53195e-09
-4.75131e-07
1.07175e-08
-4.72203e-07
-6.21952e-11
4.17405e-09
-4.53614e-07
-4.35753e-07
1.23491e-08
-4.63419e-11
7.7523e-10
7.33949e-09
7.73086e-09
-4.75124e-07
-3.82244e-11
1.61634e-09
1.05842e-08
-4.56718e-07
1.10953e-08
-4.37497e-07
-3.61625e-12
1.99626e-09
-5.01263e-07
2.27023e-09
-5.06141e-07
-5.03198e-07
5.48859e-09
1.03602e-09
9.09676e-10
5.93223e-10
1.60081e-09
3.35734e-09
-5.04148e-07
6.47694e-10
6.5064e-10
-5.08386e-07
3.63527e-09
9.81287e-10
-5.05567e-07
7.50292e-09
-4.84524e-07
9.60814e-09
-4.92204e-07
-4.74987e-07
1.24075e-08
4.78332e-09
6.16469e-09
1.82282e-09
3.1183e-09