/*--------------------------------*- C++ -*----------------------------------*\
| =========                 |                                                 |
| \\      /  F ield         | OpenFOAM: The Open Source CFD Toolbox           |
|  \\    /   O peration     | Version:  2.2.2                                 |
|   \\  /    A nd           | Web:      www.OpenFOAM.org                      |
|    \\/     M anipulation  |                                                 |
\*---------------------------------------------------------------------------*/
FoamFile
{
    version     2.0;
    format      ascii;
    class       volVectorField;
    location    "0.922666";
    object      U_0;
}
// * * * * * * * * * * * * * * * * * * * * * * * * * * * * * * * * * * * * * //

dimensions      [0 1 -1 0 0 0 0];

internalField   nonuniform List<vector> 
25373
(
(-1.23021e-05 -0.000320116 -0.0549666)
(-0.000226756 -2.89094e-05 -0.0549827)
(3.96593e-05 7.40987e-05 -0.0547985)
(7.01076e-06 0.000116944 -0.0545057)
(-4.51203e-05 -0.000200408 -0.0549829)
(0.000233051 0.000257917 -0.0546985)
(0.000293649 0.000425596 -0.0536087)
(0.00013752 0.000501213 -0.0515204)
(6.17825e-05 6.737e-05 -0.0548004)
(0.000417241 0.000340526 -0.053619)
(0.000800606 0.000826533 -0.0486206)
(0.000448815 0.00111143 -0.0411282)
(-0.000326171 -1.64353e-05 -0.0549669)
(0.000123832 2.63025e-05 -0.0545142)
(0.000524433 0.000174121 -0.0515951)
(0.00117076 0.00046311 -0.0413306)
(0.000570185 0.000503773 -0.029433)
(-4.43446e-05 1.57542e-05 -0.0552518)
(-3.59153e-05 0.000146744 -0.0552929)
(0.000131723 0.000292516 -0.055332)
(3.91599e-05 0.000336479 -0.0550927)
(0.000131736 -1.24382e-05 -0.0552936)
(0.000361174 0.000385772 -0.0552635)
(0.000404326 0.000690092 -0.0542405)
(0.000209503 0.000971954 -0.0520425)
(0.000287565 0.000159048 -0.0553329)
(0.000684656 0.000454937 -0.0542482)
(0.00132431 0.00135157 -0.0486829)
(0.000719878 0.00179436 -0.039924)
(1.59823e-05 -2.94776e-05 -0.0552533)
(0.000347074 6.01152e-05 -0.0550991)
(0.000993985 0.000252853 -0.0521142)
(0.00186298 0.000735954 -0.040134)
(0.000798588 0.000722229 -0.0261149)
(-6.31479e-05 0.000108386 -0.055475)
(7.28429e-06 0.000172677 -0.0554682)
(-1.1822e-06 0.000241409 -0.0555154)
(-0.000107315 0.000508214 -0.0554677)
(0.000158706 2.94421e-05 -0.055469)
(0.000186914 0.000209209 -0.0554558)
(8.92075e-05 0.000527572 -0.0552149)
(-0.000288855 0.000983289 -0.0543333)
(0.000236534 2.11445e-05 -0.0555155)
(0.000523273 0.0001307 -0.0552129)
(0.000571561 0.000604875 -0.0531857)
(-1.1165e-05 0.0014409 -0.045705)
(0.000111435 -4.95597e-05 -0.0554742)
(0.000510723 -8.70006e-05 -0.0554677)
(0.000996056 -0.000243196 -0.0543537)
(0.00149122 4.29583e-05 -0.0458634)
(0.000304604 0.000228866 -0.029317)
(-5.41757e-05 0.000101791 -0.0558434)
(1.61989e-05 0.000172994 -0.0558595)
(4.65878e-05 0.000266627 -0.0558578)
(-2.88388e-05 0.000464729 -0.0557877)
(0.000160203 3.80821e-05 -0.0558597)
(0.000253135 0.000275472 -0.0558101)
(0.000266152 0.000634149 -0.055517)
(5.82921e-05 0.000970526 -0.0545394)
(0.000263973 7.03891e-05 -0.0558576)
(0.000631434 0.0003103 -0.0555155)
(0.000979382 0.00101706 -0.0529901)
(0.000683554 0.00173006 -0.0449109)
(0.000103504 -4.37912e-05 -0.0558447)
(0.000470569 -1.01303e-05 -0.0557883)
(0.000989171 0.000102665 -0.0545645)
(0.00177524 0.000735822 -0.0450735)
(0.000955114 0.000894683 -0.0269151)
(-5.27584e-05 9.76333e-05 -0.0562377)
(1.46049e-05 0.000154226 -0.0562485)
(8.357e-05 0.000295236 -0.0562359)
(2.1813e-05 0.000510185 -0.0561768)
(0.000142073 3.58806e-05 -0.0562489)
(0.000309946 0.000332032 -0.0561888)
(0.0003596 0.000755915 -0.055941)
(0.000141887 0.00113487 -0.0550461)
(0.000293712 0.000107243 -0.0562367)
(0.000756316 0.000405083 -0.0559406)
(0.00123183 0.00127418 -0.0534927)
(0.000959774 0.00211498 -0.0445433)
(9.98325e-05 -3.91846e-05 -0.0562419)
(0.000520712 4.12488e-05 -0.0561771)
(0.00115886 0.000186438 -0.0550643)
(0.0021609 0.00102006 -0.0447075)
(0.00145849 0.00140168 -0.024086)
(-5.36025e-05 9.60662e-05 -0.0566798)
(1.508e-05 0.000142044 -0.0566723)
(0.000105691 0.000320084 -0.0566635)
(5.21119e-05 0.00056153 -0.0566279)
(0.000130856 3.66292e-05 -0.0566725)
(0.000353151 0.000374952 -0.0566323)
(0.000432099 0.000865586 -0.0564543)
(0.000182349 0.00132443 -0.0556911)
(0.00032135 0.000130107 -0.0566657)
(0.000869435 0.000480491 -0.0564535)
(0.00149615 0.00154521 -0.054149)
(0.00123173 0.00265743 -0.0443069)
(9.94555e-05 -3.84577e-05 -0.0566853)
(0.000574916 7.24594e-05 -0.05663)
(0.00136013 0.000231337 -0.0556969)
(0.00274965 0.00130545 -0.0444758)
(0.00190428 0.00184197 -0.0206007)
(-5.12941e-05 9.01881e-05 -0.0571482)
(1.12144e-05 0.000125349 -0.057118)
(9.99028e-05 0.000311063 -0.0571295)
(5.84085e-05 0.000559868 -0.0571382)
(0.000114455 3.07358e-05 -0.0571187)
(0.000343814 0.000365041 -0.0571235)
(0.000439341 0.000887064 -0.0570715)
(0.000173467 0.00141409 -0.0565277)
(0.000313847 0.000124519 -0.0571339)
(0.00089464 0.000491241 -0.0570709)
(0.00168139 0.00173166 -0.0551142)
(0.00146706 0.00311388 -0.0442485)
(9.12102e-05 -3.53785e-05 -0.0571531)
(0.000570855 7.87634e-05 -0.0571417)
(0.00144301 0.000226783 -0.0565349)
(0.00318705 0.00153491 -0.044395)
(0.00226152 0.00220146 -0.0163855)
(-4.90839e-05 6.50383e-05 -0.0575506)
(-8.47469e-06 8.49589e-05 -0.0574908)
(4.12512e-05 0.000213982 -0.0575492)
(2.69692e-05 0.000414478 -0.0576356)
(7.48376e-05 1.12381e-05 -0.0574936)
(0.000230064 0.000250344 -0.0575926)
(0.000304679 0.000682593 -0.0577553)
(6.93572e-05 0.00121565 -0.057574)
(0.00021452 6.48225e-05 -0.0575554)
(0.000693445 0.000355339 -0.0577581)
(0.00156965 0.00162161 -0.0565268)
(0.00168025 0.00343389 -0.044656)
(6.46561e-05 -3.6716e-05 -0.0575603)
(0.00042259 4.58508e-05 -0.0576418)
(0.00124545 0.000118108 -0.0575844)
(0.00352385 0.00175167 -0.0447002)
(0.00237942 0.00239398 -0.0113752)
(-4.73496e-05 4.01015e-05 -0.057734)
(-3.27767e-05 2.08531e-05 -0.0576451)
(-5.30772e-05 4.04602e-05 -0.0577478)
(-2.68961e-05 0.000160855 -0.0579127)
(9.54143e-06 -1.36106e-05 -0.0576492)
(1.2756e-05 3.18637e-05 -0.0578373)
(-1.70763e-05 0.00018702 -0.058301)
(-0.000175546 0.000495069 -0.0586369)
(3.95721e-05 -2.95203e-05 -0.057757)
(0.000195139 2.95643e-05 -0.0583079)
(0.000738958 0.000788892 -0.058383)
(0.00165939 0.00258826 -0.0461768)
(3.95829e-05 -3.65155e-05 -0.0577472)
(0.000164776 -8.91046e-06 -0.0579282)
(0.000499172 -0.000144352 -0.0586541)
(0.00272786 0.00164521 -0.0461536)
(0.000581726 0.000718286 -0.0112124)
(-2.11212e-05 -9.80988e-05 -0.0575121)
(-9.78079e-05 -0.000133797 -0.0574029)
(-0.00027457 -0.000441901 -0.0575356)
(-0.000104501 -0.000653518 -0.0577975)
(-0.00014454 -8.247e-05 -0.0574079)
(-0.000519429 -0.000498779 -0.0576589)
(-0.000747443 -0.000932083 -0.0582653)
(-0.000733477 -0.00121236 -0.0589516)
(-0.000444395 -0.000256265 -0.0575473)
(-0.000942522 -0.000703626 -0.0582829)
(-0.000946039 -0.00087768 -0.0601016)
(0.000351029 1.87201e-05 -0.0512242)
(-9.46402e-05 -1.77838e-05 -0.0575273)
(-0.000628925 -9.32996e-05 -0.0578157)
(-0.00108574 -0.000696571 -0.0589903)
(-0.000861354 0.000181134 -0.0555502)
(0.00225839 0.00252077 -0.0069064)
(-0.000225034 -0.000200346 -0.0549055)
(-0.000135954 0.000115948 -0.0554416)
(2.5309e-05 -0.000347192 -0.0549179)
(-0.000177074 -0.000288564 -0.0549625)
(-0.000118741 -0.000301109 -0.0549785)
(-6.97124e-05 1.12248e-05 -0.0555112)
(-6.76266e-05 8.6137e-05 -0.0553988)
(-3.3621e-05 0.000157528 -0.0553436)
(3.1102e-05 -0.000329072 -0.0549647)
(-6.33858e-05 -0.000311611 -0.0549609)
(-1.68659e-05 -0.00029132 -0.0549563)
(-5.68384e-05 6.74106e-06 -0.0555189)
(4.09608e-06 2.7837e-06 -0.0555283)
(-3.61468e-05 0.000102227 -0.0552766)
(-1.03019e-06 0.000133635 -0.055253)
(-0.000239792 -0.000170772 -0.0549258)
(-0.000188099 -0.000216601 -0.054926)
(-0.000166919 -0.000146334 -0.0549812)
(-3.94421e-05 5.89593e-05 -0.055461)
(4.08116e-05 -1.77269e-05 -0.0554606)
(8.38114e-05 0.000104311 -0.0553565)
(-0.000233655 -0.00014973 -0.0549577)
(8.88048e-06 -0.000126923 -0.0549392)
(3.21708e-05 6.70472e-05 -0.0549082)
(-4.44125e-05 0.000151275 -0.0554439)
(8.89413e-06 0.000103684 -0.0553308)
(0.000112285 0.00012446 -0.0552758)
(0.000263459 0.000316586 -0.0551799)
(-0.000215983 -0.000170308 -0.0549055)
(0.000103562 -0.000113494 -0.0554409)
(-0.000145696 3.1006e-05 -0.0549386)
(-0.000164009 -0.000208767 -0.0549583)
(5.0042e-05 6.03776e-05 -0.0549094)
(0.000136055 -2.20412e-05 -0.0554446)
(0.000105885 0.00013433 -0.0552763)
(8.97135e-05 3.19634e-05 -0.0553337)
(0.00030143 0.000291139 -0.05518)
(-0.000316047 -0.000151493 -0.0549625)
(-0.000377208 1.59751e-05 -0.0549108)
(-0.000318906 -0.000109186 -0.0549791)
(7.81205e-05 -4.92222e-05 -0.0554113)
(1.00592e-05 -4.40983e-05 -0.0555308)
(0.000158441 -1.24965e-05 -0.0553474)
(-0.000317463 -4.83512e-05 -0.0549618)
(-0.000332357 3.78765e-05 -0.054967)
(-0.000291218 -9.97661e-06 -0.0549587)
(6.93772e-06 -3.84386e-05 -0.0555284)
(0.000105145 -1.78036e-05 -0.055281)
(4.05524e-06 1.87002e-05 -0.0555344)
(0.000139802 9.76722e-06 -0.0552552)
(-0.000112575 6.67739e-05 -0.0552128)
(-0.000129935 0.000105836 -0.0554818)
(-5.68112e-05 8.18811e-06 -0.055246)
(-4.30327e-05 -8.54228e-05 -0.0552354)
(-3.76059e-05 6.5291e-06 -0.0552256)
(-6.84706e-05 1.84179e-05 -0.0554866)
(-4.43379e-05 -1.43339e-05 -0.0554806)
(-1.83099e-05 0.000127632 -0.055455)
(1.25753e-05 5.98432e-06 -0.0552502)
(-2.4299e-05 -6.39231e-05 -0.0551971)
(8.78642e-07 -1.52635e-05 -0.055186)
(-5.22538e-05 3.62525e-05 -0.0554888)
(1.08096e-05 2.93571e-05 -0.0554888)
(-1.95202e-05 6.86249e-05 -0.0554271)
(9.77991e-06 0.000146229 -0.055412)
(-0.000104867 8.41671e-05 -0.0552646)
(6.62965e-05 -8.36716e-05 -0.0552649)
(3.95215e-05 6.00863e-05 -0.055248)
(-8.5063e-05 8.50889e-05 -0.0555116)
(6.68094e-05 -6.393e-05 -0.0555121)
(8.44767e-05 0.00010537 -0.0554852)
(-9.36147e-05 7.39942e-05 -0.0552517)
(0.000134291 -1.19047e-06 -0.0552451)
(0.000160651 0.000216538 -0.0551605)
(-1.95922e-05 0.000178993 -0.05551)
(-3.33764e-05 0.000118279 -0.0555079)
(0.000159357 2.10098e-06 -0.0555014)
(0.000290985 0.000329435 -0.0553776)
(5.31849e-05 -8.63823e-05 -0.0552133)
(9.46915e-05 -0.000110741 -0.0554832)
(-1.95267e-05 0.00015682 -0.0552449)
(5.90776e-05 -7.15878e-05 -0.0552536)
(0.000200917 0.000187519 -0.0551605)
(0.000164728 2.22815e-06 -0.0555101)
(-1.62587e-05 0.000181687 -0.0555012)
(0.000104873 -1.12632e-05 -0.05551)
(0.000315315 0.000320346 -0.0553756)
(-9.71829e-05 -2.39999e-05 -0.0552354)
(3.96473e-06 -3.46083e-05 -0.0552459)
(1.36502e-06 -1.90715e-05 -0.0552244)
(-2.23357e-05 -2.82144e-05 -0.0554829)
(1.67163e-05 -4.45055e-05 -0.0554869)
(0.000126589 -4.79406e-07 -0.0554551)
(-6.33192e-05 -7.38751e-06 -0.0551971)
(5.8032e-06 2.55336e-05 -0.0552525)
(-1.21366e-05 9.70573e-06 -0.0551864)
(3.76498e-05 -3.80596e-05 -0.0554928)
(7.12388e-05 -3.65238e-06 -0.055428)
(3.15631e-05 2.52391e-05 -0.0554904)
(0.000151934 1.93125e-05 -0.0554131)
(-0.000111924 -1.69815e-06 -0.0555312)
(-3.22564e-05 6.22225e-05 -0.0557705)
(-0.000160101 8.96778e-05 -0.0555029)
(3.45957e-05 -0.000185374 -0.0554869)
(4.99488e-05 -1.19457e-06 -0.0554994)
(-3.86334e-05 4.17391e-05 -0.0557536)
(-4.36851e-05 0.000139488 -0.0557467)
(-1.28784e-05 0.00013761 -0.0557617)
(2.0529e-05 0.000166444 -0.0554933)
(3.62918e-05 -8.4098e-05 -0.0554698)
(4.85662e-05 -3.17068e-06 -0.0554739)
(-4.74913e-05 5.50746e-05 -0.0557412)
(-1.35036e-05 4.56538e-05 -0.0557524)
(-8.45342e-06 0.000199503 -0.0557401)
(1.12346e-06 0.000204319 -0.0557427)
(-0.000208466 0.000208007 -0.0555149)
(0.000189346 -0.00018573 -0.0555156)
(6.30474e-06 2.78108e-05 -0.055523)
(5.13837e-05 -2.39101e-08 -0.0557478)
(-1.69808e-05 7.21019e-05 -0.0557487)
(8.669e-05 0.000107375 -0.0557583)
(-2.72926e-05 0.000296822 -0.0555323)
(0.000351922 -0.000115292 -0.0555285)
(0.000179595 0.00019961 -0.0554899)
(-1.28697e-05 9.01568e-05 -0.0557318)
(6.28843e-05 0.000112775 -0.0557515)
(9.48633e-05 0.000308129 -0.0557185)
(0.000184138 0.00028358 -0.0557536)
(-1.43643e-05 -9.22478e-05 -0.0555336)
(5.17071e-05 -1.06569e-05 -0.0557727)
(-0.000134448 0.000377045 -0.0555286)
(0.000284998 -4.53447e-06 -0.0555337)
(0.000184498 0.000209242 -0.0554895)
(7.78098e-05 8.30066e-06 -0.0557323)
(0.000290679 0.000118063 -0.0557185)
(0.000103856 8.45333e-05 -0.0557528)
(0.000268807 0.000213506 -0.0557537)
(-0.000191488 5.08679e-05 -0.0554875)
(8.80604e-05 -0.000146272 -0.0554992)
(-2.9347e-06 6.80869e-05 -0.0554982)
(0.000129268 -2.28913e-05 -0.0557474)
(3.5522e-05 -2.02513e-05 -0.0557517)
(0.000132285 5.81713e-06 -0.0557615)
(-8.1638e-05 5.03442e-05 -0.0554691)
(0.000167181 1.64283e-05 -0.0554917)
(1.13738e-06 6.7132e-05 -0.0554739)
(5.37565e-05 -3.42098e-05 -0.0557407)
(0.000196583 8.12611e-06 -0.0557403)
(4.86697e-05 2.39945e-06 -0.0557522)
(0.000205665 1.12519e-05 -0.0557424)
(-9.22186e-05 2.33916e-05 -0.0558517)
(1.31229e-05 4.32307e-05 -0.0560963)
(-9.87402e-05 7.13115e-05 -0.0558401)
(1.45136e-05 -0.000107458 -0.0558465)
(3.75799e-05 6.02408e-05 -0.0558429)
(-2.40335e-05 3.42152e-05 -0.0560764)
(-1.93971e-05 0.000134065 -0.0560653)
(9.42376e-06 0.00014605 -0.0560904)
(1.20074e-05 0.000125478 -0.0558436)
(2.72882e-05 2.68564e-05 -0.0558234)
(3.57046e-05 9.77755e-05 -0.0558157)
(-4.3026e-05 6.2706e-05 -0.0560671)
(-1.43111e-05 5.60718e-05 -0.056081)
(1.32132e-05 0.000225284 -0.0560675)
(-6.18192e-07 0.000232981 -0.0560749)
(-0.000173082 0.000173749 -0.0558521)
(0.000155726 -0.000149187 -0.0558532)
(3.30896e-05 5.45887e-05 -0.055848)
(4.59629e-05 -8.56693e-07 -0.0560624)
(-1.6504e-05 6.81234e-05 -0.0560621)
(8.67471e-05 0.000106912 -0.0560848)
(-4.67958e-07 0.000245759 -0.0558501)
(0.000319154 -6.03833e-05 -0.055849)
(0.000225833 0.000276657 -0.0558145)
(5.90884e-06 8.17545e-05 -0.0560152)
(6.84898e-05 0.000129815 -0.0560668)
(0.00012042 0.000266087 -0.0560348)
(0.000208067 0.000327625 -0.0560711)
(1.31996e-05 -6.66578e-05 -0.0558519)
(3.08648e-05 3.69356e-05 -0.0560963)
(-7.96151e-05 0.00034331 -0.0558482)
(0.000236166 2.45091e-05 -0.0558505)
(0.000261893 0.000256059 -0.0558139)
(6.93559e-05 2.82652e-05 -0.056016)
(0.000248284 0.000145039 -0.0560349)
(0.000119465 9.18325e-05 -0.0560673)
(0.000311469 0.000239014 -0.0560707)
(-0.000112231 3.49133e-05 -0.0558457)
(6.40674e-05 -8.62319e-05 -0.0558395)
(5.52918e-05 5.54534e-05 -0.0558418)
(0.000124292 1.70118e-06 -0.056066)
(2.82345e-05 -9.02428e-06 -0.0560812)
(0.000140463 2.84333e-05 -0.0560927)
(3.02693e-05 4.27865e-05 -0.0558225)
(0.000127452 1.96591e-05 -0.0558434)
(0.000101883 4.76009e-05 -0.0558148)
(6.18183e-05 -2.81512e-05 -0.0560701)
(0.000226896 3.08634e-05 -0.056069)
(5.8366e-05 -1.41371e-06 -0.0560838)
(0.000238342 9.73628e-06 -0.0560758)
(-4.60599e-05 3.29061e-05 -0.0562142)
(1.8869e-05 3.58066e-05 -0.0564804)
(-6.80693e-05 5.54889e-05 -0.056224)
(8.87378e-06 -1.24587e-05 -0.0562251)
(4.33888e-05 0.00010437 -0.0562186)
(-2.51354e-05 3.58833e-05 -0.0564753)
(-8.33174e-06 0.000119612 -0.05646)
(2.96459e-05 0.000163642 -0.0564804)
(6.28049e-06 0.000110616 -0.056236)
(3.31412e-05 0.000133767 -0.0562111)
(2.85327e-05 0.000179431 -0.0562027)
(-4.46117e-05 7.3321e-05 -0.0564729)
(-1.09952e-05 7.0678e-05 -0.0564859)
(2.90352e-05 0.000246323 -0.0564652)
(5.10667e-06 0.000260164 -0.0564709)
(-9.37138e-05 0.00012112 -0.0562366)
(0.000102857 -7.16285e-05 -0.0562361)
(6.59911e-05 8.84702e-05 -0.0562223)
(3.71398e-05 1.64473e-05 -0.0564556)
(-1.52e-06 5.85648e-05 -0.0564569)
(9.31926e-05 0.000116093 -0.0564687)
(4.98555e-05 0.000214888 -0.0562217)
(0.000271147 9.86742e-05 -0.0562201)
(0.000258767 0.00033528 -0.0561796)
(2.19262e-05 9.74982e-05 -0.0564241)
(8.37945e-05 0.000165962 -0.0564573)
(0.000165211 0.000249837 -0.0564345)
(0.000245159 0.000373417 -0.0564558)
(2.00236e-05 -2.19568e-05 -0.0562145)
(2.32848e-05 4.22728e-05 -0.056483)
(7.98996e-05 0.000295917 -0.05622)
(0.000204322 7.36857e-05 -0.0562224)
(0.000319041 0.000290592 -0.0561793)
(8.52584e-05 4.37057e-05 -0.0564249)
(0.000231632 0.000191867 -0.0564345)
(0.000155173 0.000108128 -0.0564585)
(0.000356826 0.000278652 -0.0564557)
(-1.87384e-05 2.80065e-05 -0.0562268)
(5.24434e-05 -5.30975e-05 -0.0562281)
(0.000101585 6.10342e-05 -0.0562209)
(0.000111107 1.1855e-05 -0.056464)
(3.25299e-05 -9.83557e-06 -0.056481)
(0.000160069 4.88514e-05 -0.0564847)
(0.000135903 4.9731e-05 -0.0562131)
(0.000112973 1.5413e-05 -0.0562373)
(0.000183636 3.87923e-05 -0.056204)
(7.42302e-05 -2.57067e-05 -0.0564786)
(0.000248383 4.78001e-05 -0.0564691)
(7.18827e-05 -4.04856e-07 -0.0564901)
(0.000263829 1.55368e-05 -0.0564742)
(-1.5789e-05 3.24396e-05 -0.0566419)
(1.74419e-05 3.16472e-05 -0.0569207)
(-4.8367e-05 4.97956e-05 -0.0566635)
(6.36391e-06 4.33825e-05 -0.0566537)
(5.10009e-05 0.000145703 -0.0566525)
(-3.12868e-05 3.97946e-05 -0.05693)
(-2.58246e-06 0.000101807 -0.0569112)
(4.63644e-05 0.000179641 -0.056928)
(3.15413e-06 0.000105326 -0.0566812)
(3.98601e-05 0.0002003 -0.0566509)
(2.41497e-05 0.000234568 -0.0566452)
(-4.88723e-05 8.30752e-05 -0.0569358)
(-7.9972e-06 8.17631e-05 -0.0569419)
(3.95603e-05 0.00025199 -0.0569243)
(1.01014e-05 0.000267126 -0.0569296)
(-3.99579e-05 8.29397e-05 -0.0566624)
(6.65108e-05 -1.68371e-05 -0.0566619)
(9.20325e-05 0.000114013 -0.0566553)
(2.41063e-05 3.13182e-05 -0.0569029)
(1.13026e-05 4.42555e-05 -0.0569022)
(0.000100928 0.000125339 -0.0569109)
(7.83813e-05 0.000210537 -0.0566498)
(0.000248861 0.000183343 -0.0566503)
(0.000284797 0.000373765 -0.0566175)
(2.13583e-05 0.000108853 -0.0568876)
(9.41266e-05 0.000190105 -0.0569053)
(0.000189602 0.000240098 -0.0568953)
(0.00027248 0.000389028 -0.0569134)
(2.08487e-05 8.05488e-06 -0.0566466)
(2.24108e-05 4.2296e-05 -0.0569246)
(0.000165394 0.000274479 -0.0566507)
(0.00020111 0.000102086 -0.056651)
(0.000357893 0.000317882 -0.0566176)
(9.67621e-05 4.10829e-05 -0.0568881)
(0.00022172 0.000216533 -0.0568962)
(0.000181714 0.000118304 -0.0569063)
(0.000373061 0.000307087 -0.0569131)
(3.72067e-05 2.56402e-05 -0.0566587)
(4.75082e-05 -3.46059e-05 -0.0566696)
(0.000143836 6.92891e-05 -0.0566578)
(9.4681e-05 1.88043e-05 -0.0569176)
(3.71578e-05 -1.46879e-05 -0.0569385)
(0.000176528 6.58128e-05 -0.0569348)
(0.000203247 5.73645e-05 -0.0566556)
(0.00010922 1.31418e-05 -0.0566864)
(0.000239854 3.45332e-05 -0.0566495)
(8.40087e-05 -2.99808e-05 -0.0569414)
(0.000253787 5.8426e-05 -0.0569306)
(8.45999e-05 4.7337e-06 -0.0569473)
(0.000272866 2.12068e-05 -0.0569344)
(-1.77395e-06 2.71354e-05 -0.0571031)
(1.27529e-05 2.28761e-05 -0.0573602)
(-4.55031e-05 4.43578e-05 -0.0571341)
(4.64768e-06 5.81033e-05 -0.0571101)
(5.50053e-05 0.000164742 -0.0571186)
(-3.99145e-05 3.86929e-05 -0.0573859)
(-6.78938e-07 6.67629e-05 -0.0573554)
(5.07327e-05 0.000168724 -0.057376)
(-7.29477e-07 9.44611e-05 -0.0571533)
(4.115e-05 0.000214918 -0.0571243)
(1.98203e-05 0.000236728 -0.0571265)
(-5.0211e-05 8.03863e-05 -0.0573897)
(-7.46479e-06 8.18336e-05 -0.0574017)
(3.86172e-05 0.000204086 -0.0573881)
(1.05246e-05 0.000215337 -0.0573995)
(-1.52032e-05 6.28442e-05 -0.0571082)
(4.53916e-05 5.04847e-06 -0.0571098)
(9.86432e-05 0.000121051 -0.0571066)
(5.553e-06 3.49644e-05 -0.0573333)
(1.82126e-05 2.78724e-05 -0.0573339)
(9.29357e-05 0.00011424 -0.0573414)
(8.80252e-05 0.000202561 -0.0571054)
(0.000217841 0.000199453 -0.0571123)
(0.000281214 0.000360946 -0.0571073)
(6.76299e-06 9.88915e-05 -0.0573325)
(8.55127e-05 0.000183698 -0.0573468)
(0.000166239 0.000192146 -0.0573523)
(0.000252677 0.000329456 -0.0573947)
(1.70359e-05 2.03223e-05 -0.0571063)
(1.31125e-05 3.27855e-05 -0.0573639)
(0.000181773 0.000242312 -0.0571132)
(0.000194272 0.000110357 -0.0571071)
(0.000344708 0.000313389 -0.057107)
(8.69887e-05 2.77342e-05 -0.057334)
(0.000174847 0.000191544 -0.0573541)
(0.000175864 0.000107806 -0.057349)
(0.000314085 0.000284265 -0.0573951)
(5.23564e-05 2.25206e-05 -0.0571178)
(4.52687e-05 -2.79152e-05 -0.0571403)
(0.000164461 7.22187e-05 -0.057125)
(6.05654e-05 1.88417e-05 -0.0573639)
(3.50735e-05 -2.36113e-05 -0.0573896)
(0.000164645 6.82887e-05 -0.0573826)
(0.000214703 5.79089e-05 -0.0571307)
(9.96085e-05 8.18141e-06 -0.0571595)
(0.000243538 3.0145e-05 -0.0571319)
(7.99412e-05 -3.44044e-05 -0.0573965)
(0.000204375 5.48788e-05 -0.0573953)
(8.53125e-05 3.36163e-06 -0.0574061)
(0.00022278 2.13487e-05 -0.0574054)
(-3.60327e-06 1.39114e-05 -0.0575008)
(-3.95564e-06 6.70994e-06 -0.0576582)
(-4.74108e-05 3.38036e-05 -0.0575418)
(-9.90223e-07 2.72492e-05 -0.0575051)
(4.27168e-05 0.000133955 -0.0575265)
(-5.1772e-05 2.40237e-05 -0.0576994)
(-6.32837e-06 6.51958e-06 -0.057658)
(3.06732e-05 0.000103755 -0.0576857)
(-6.18231e-06 7.11582e-05 -0.0575622)
(2.60344e-05 0.000131986 -0.0575509)
(1.21836e-05 0.000143364 -0.0575647)
(-5.00994e-05 5.19939e-05 -0.0577001)
(-9.69805e-06 5.45537e-05 -0.0577162)
(1.51387e-05 6.31453e-05 -0.0577258)
(4.75158e-06 6.55854e-05 -0.0577435)
(-1.89163e-05 4.4999e-05 -0.0574776)
(2.87499e-05 1.15668e-06 -0.0574777)
(7.38889e-05 9.44964e-05 -0.0574855)
(-1.89279e-05 3.26068e-05 -0.0576196)
(1.68009e-05 3.1526e-07 -0.05762)
(5.36244e-05 7.28203e-05 -0.0576327)
(6.35561e-05 0.00015535 -0.0574982)
(0.000135341 0.000132478 -0.0575201)
(0.000201153 0.000233946 -0.0575737)
(-1.96801e-05 5.98148e-05 -0.057631)
(3.95235e-05 0.00012077 -0.0576493)
(7.95296e-05 7.86106e-05 -0.0576766)
(0.000142809 0.000149062 -0.0577682)
(3.87789e-06 1.32205e-05 -0.0575065)
(-2.77081e-06 1.29317e-05 -0.0576648)
(0.000117657 0.000159853 -0.0575231)
(0.000147426 8.43155e-05 -0.0575014)
(0.000221484 0.000232762 -0.0575759)
(4.85381e-05 -1.72508e-07 -0.0576343)
(6.36779e-05 0.000102923 -0.0576802)
(0.000112769 5.94738e-05 -0.0576531)
(0.000136802 0.000171985 -0.057771)
(2.14074e-05 1.53972e-05 -0.0575133)
(3.03663e-05 -3.71763e-05 -0.0575492)
(0.000130259 5.69957e-05 -0.0575347)
(-1.23274e-07 1.04475e-05 -0.057667)
(2.06666e-05 -4.02634e-05 -0.0577077)
(0.000100249 4.48233e-05 -0.0576946)
(0.000131303 4.01085e-05 -0.0575602)
(7.256e-05 4.18266e-06 -0.0575685)
(0.000149274 2.25202e-05 -0.0575727)
(5.10131e-05 -3.46279e-05 -0.0577102)
(6.10344e-05 2.89214e-05 -0.0577366)
(5.57946e-05 1.63544e-06 -0.0577251)
(7.32093e-05 1.48427e-05 -0.057753)
(-2.98939e-09 -1.57963e-05 -0.0576799)
(-3.27642e-05 -2.31556e-05 -0.05769)
(-4.1507e-05 1.234e-05 -0.0577312)
(-1.61428e-06 -5.06667e-05 -0.0576857)
(2.48532e-05 3.29866e-05 -0.0577193)
(-8.27262e-05 2.85199e-06 -0.0577401)
(-2.64528e-05 -9.44573e-05 -0.0576977)
(-4.23961e-05 -4.69502e-05 -0.0577347)
(-1.81445e-05 3.99631e-05 -0.0577488)
(6.14071e-06 -4.19285e-05 -0.0577858)
(-6.29304e-06 -7.91516e-05 -0.0578013)
(-4.31098e-05 -1.81216e-05 -0.0577363)
(-1.27398e-05 4.40894e-07 -0.0577531)
(-2.93009e-05 -0.00018344 -0.0578012)
(8.36826e-06 -0.000205706 -0.0578293)
(-2.46226e-05 1.29399e-05 -0.0576317)
(-2.77171e-06 -5.85639e-06 -0.0576326)
(2.16455e-05 3.97076e-05 -0.0576438)
(-4.91005e-05 1.17337e-05 -0.0576353)
(-1.7139e-06 -3.39302e-05 -0.0576362)
(-1.99403e-05 -5.14515e-06 -0.0576467)
(7.68827e-06 5.06673e-05 -0.0576702)
(-2.04755e-05 -1.35926e-05 -0.0577022)
(2.55283e-05 -2.10648e-05 -0.0578202)
(-5.9265e-05 -1.67795e-05 -0.0576478)
(-5.73158e-05 -2.06688e-05 -0.0576784)
(-0.000101031 -0.000116788 -0.0577161)
(-7.89722e-05 -0.000172178 -0.0578532)
(-2.37553e-05 1.56056e-05 -0.0576878)
(-2.86049e-05 -2.28008e-05 -0.0576981)
(-2.62074e-05 1.41735e-06 -0.0577066)
(4.35084e-05 2.59185e-05 -0.0576749)
(-3.1157e-05 5.22477e-05 -0.0578243)
(-2.77728e-05 -4.21596e-05 -0.0576521)
(-0.000128004 -8.11753e-05 -0.0577205)
(-2.64606e-05 -4.19351e-05 -0.0576833)
(-0.00017949 -5.61668e-05 -0.0578575)
(-5.52943e-05 1.36787e-05 -0.0576969)
(9.04748e-06 -2.96949e-05 -0.0577419)
(3.11099e-05 3.74432e-05 -0.0577306)
(-9.92549e-05 -1.27276e-05 -0.0577089)
(3.93373e-07 -7.94125e-05 -0.0577516)
(-4.80356e-05 -3.34876e-05 -0.0577468)
(-4.13315e-05 1.72992e-05 -0.0577993)
(4.05894e-05 -6.87517e-06 -0.0577584)
(-7.38109e-05 4.00482e-06 -0.057811)
(-2.11187e-05 -3.08212e-05 -0.0577495)
(-0.00018836 -1.78859e-05 -0.0578124)
(2.59788e-06 -3.11862e-06 -0.0577631)
(-0.00020088 1.98803e-05 -0.05784)
(-5.06001e-05 -5.25781e-05 -0.0574483)
(-2.5156e-05 -4.85005e-05 -0.0575151)
(-4.76136e-05 -0.000167983 -0.0574559)
(-6.79135e-05 -0.000178077 -0.0575018)
(-2.92868e-05 -0.000119627 -0.0575474)
(-9.26473e-05 -0.000341818 -0.0575447)
(-5.08046e-05 -0.00042813 -0.0576186)
(-6.60379e-05 -2.4936e-05 -0.0573908)
(-3.68451e-05 -5.29082e-05 -0.0573918)
(-0.000125429 -0.000113697 -0.0574048)
(-0.000145458 -0.000210826 -0.0574406)
(-0.000329824 -0.000349376 -0.0574908)
(-0.000377723 -0.000576175 -0.0576515)
(-5.72069e-05 -4.20366e-05 -0.0574571)
(-0.000358103 -0.000313663 -0.0574962)
(-0.000216343 -0.000133056 -0.057446)
(-0.000577159 -0.000355739 -0.0576558)
(-0.00017254 -3.78313e-05 -0.0574694)
(-5.03101e-05 -1.56004e-05 -0.0575275)
(-0.000175157 -5.435e-05 -0.0575151)
(-0.000344686 -8.27632e-05 -0.0575602)
(-0.000120045 -2.10269e-05 -0.0575643)
(-0.000423321 -4.51011e-05 -0.0576391)
(2.4042e-06 0.000611018 -0.0555057)
(0.00032724 -8.48789e-05 -0.0554238)
(0.000242778 0.000408042 -0.0554007)
(0.000101408 0.000248174 -0.0555999)
(8.30877e-05 0.000327873 -0.0556649)
(0.000208817 0.000518814 -0.0556516)
(0.000169036 0.000517832 -0.0556491)
(9.761e-05 0.000682245 -0.055445)
(6.89462e-05 2.00558e-05 -0.0551103)
(0.000188831 0.000267121 -0.0550117)
(6.89114e-05 0.000361086 -0.0554936)
(-9.17919e-06 0.000365249 -0.0555064)
(3.97667e-05 0.000653614 -0.0554147)
(7.78245e-05 0.000620755 -0.0553272)
(-0.00011628 0.000797029 -0.0554154)
(0.00078032 -8.29047e-05 -0.0554164)
(0.000557685 0.000595109 -0.0553004)
(0.000264439 0.00028733 -0.0554732)
(0.000486526 0.000320302 -0.0555677)
(0.000299459 0.000513902 -0.0555685)
(0.000534855 0.000571101 -0.0555166)
(1.06468e-05 0.00126788 -0.0548463)
(0.000958154 3.0036e-05 -0.0544098)
(0.000952891 0.00118366 -0.053136)
(0.000282025 0.000587905 -0.0550007)
(0.000266571 0.000795158 -0.0548329)
(0.000357692 0.0011506 -0.0546722)
(0.000528951 0.00106184 -0.053693)
(0.000291766 0.00134712 -0.0537467)
(0.000403399 0.000529679 -0.0509795)
(0.000603358 0.00102112 -0.0495498)
(9.92161e-05 0.000794997 -0.0538533)
(9.00996e-05 0.000817589 -0.0534923)
(0.000235676 0.001162 -0.0515464)
(0.000194424 0.00120691 -0.0503923)
(-9.284e-05 0.000359671 -0.0554219)
(0.000612445 2.41175e-05 -0.0555057)
(0.000408658 0.000273174 -0.0554006)
(0.000244964 0.000126281 -0.0555998)
(0.000505154 0.000242886 -0.0556507)
(0.000326541 0.00010578 -0.0556664)
(0.000518436 0.000200757 -0.0556485)
(1.08545e-05 0.00100399 -0.054411)
(0.00127253 6.05313e-05 -0.0548534)
(0.00117125 0.00101729 -0.0531624)
(0.000581302 0.000325891 -0.0549996)
(0.00111529 0.000425244 -0.0546758)
(0.000799143 0.000315111 -0.0548412)
(0.00106408 0.000599263 -0.0537166)
(0.000697459 0.00192227 -0.0493348)
(0.00192484 0.000760799 -0.0494002)
(0.00211399 0.00212994 -0.042533)
(0.000921777 0.000964711 -0.0519986)
(0.00108017 0.00117669 -0.0492548)
(0.00117467 0.00113472 -0.0492951)
(0.00137564 0.00139788 -0.0438704)
(0.000955642 0.00189231 -0.0424177)
(0.000786644 0.0019077 -0.0361837)
(0.00133992 0.00235984 -0.0317416)
(0.000720018 0.00148669 -0.0440217)
(0.000312147 0.0015156 -0.0414238)
(0.000980008 0.00133272 -0.0365417)
(0.000444113 0.00153151 -0.0330028)
(3.16484e-05 9.82085e-05 -0.0551175)
(0.000688051 0.000108082 -0.0554459)
(0.000285059 0.000204513 -0.0550262)
(0.000368177 8.64946e-05 -0.0554952)
(0.000657522 6.74488e-05 -0.0554205)
(0.000378089 5.67671e-06 -0.0555105)
(0.000633408 9.4804e-05 -0.0553384)
(0.000548635 0.000461515 -0.0510628)
(0.001365 0.000312341 -0.0537965)
(0.00105091 0.000627734 -0.0497006)
(0.000810997 0.0001419 -0.0538861)
(0.00119029 0.00030344 -0.0516263)
(0.000844559 0.000117387 -0.0535512)
(0.00125673 0.000233219 -0.0505276)
(0.00194231 0.000772538 -0.0363068)
(0.00198143 0.000976372 -0.0427234)
(0.00245011 0.00130639 -0.0320524)
(0.00152928 0.000770063 -0.0441895)
(0.00138214 0.00099465 -0.0366893)
(0.00160275 0.000348074 -0.0417116)
(0.00162743 0.000454493 -0.0333026)
(0.00171012 0.000160238 -0.024843)
(0.000276559 0.00161976 -0.0249834)
(0.00181697 0.0017039 -0.0196667)
(0.00123775 0.00117686 -0.0270986)
(0.000163524 0.00145484 -0.0231709)
(0.00156324 0.000169773 -0.023324)
(-9.44477e-05 -0.000194934 -0.0198211)
(5.08723e-05 0.00050385 -0.0558245)
(0.00022663 0.000160419 -0.055744)
(0.000213671 0.000481411 -0.0556901)
(0.000104131 0.000269538 -0.0559486)
(8.63674e-05 0.000353647 -0.0559854)
(0.000231269 0.000518447 -0.0559743)
(0.000180087 0.000597867 -0.0559313)
(6.76582e-05 0.000565063 -0.0557659)
(8.96581e-05 0.000377386 -0.0554822)
(8.39956e-05 0.000511013 -0.055365)
(5.62383e-05 0.000429888 -0.0558816)
(1.25331e-05 0.000446126 -0.0558723)
(8.64353e-05 0.000701415 -0.0557567)
(4.92208e-05 0.000707639 -0.055651)
(9.50158e-05 0.000711267 -0.0557235)
(0.000693499 0.000132629 -0.0557241)
(0.000582317 0.000619487 -0.0554888)
(0.000284168 0.000307665 -0.0558677)
(0.000425256 0.000402792 -0.055902)
(0.000381094 0.000458041 -0.0559025)
(0.000614282 0.000654818 -0.0557899)
(0.000234553 0.000980088 -0.0551762)
(0.000851304 0.000558998 -0.0547938)
(0.000664991 0.00116107 -0.0534786)
(0.000347929 0.000703189 -0.0555623)
(0.000275301 0.000878116 -0.0552862)
(0.000562236 0.00111824 -0.0550983)
(0.000620677 0.00126253 -0.0538759)
(0.000128696 0.0011069 -0.0540537)
(0.000378298 0.00115389 -0.0514539)
(0.00027322 0.00129499 -0.0499899)
(0.000146711 0.000981562 -0.0545769)
(8.68905e-05 0.00100987 -0.0541354)
(0.000395769 0.00140554 -0.0518607)
(0.000215772 0.00147275 -0.05039)
(0.000159111 0.000258344 -0.0557416)
(0.000503411 7.24096e-05 -0.0558231)
(0.000481716 0.000242917 -0.0556886)
(0.00026635 0.00012947 -0.0559495)
(0.000509423 0.000266764 -0.0559725)
(0.000356936 0.000109442 -0.0559873)
(0.000599191 0.000212955 -0.0559288)
(0.000549953 0.000897293 -0.0547933)
(0.000984223 0.000281257 -0.0551819)
(0.00115822 0.000735992 -0.053498)
(0.000698611 0.00039561 -0.0555628)
(0.00109057 0.000633688 -0.0551005)
(0.000888046 0.000327565 -0.0552904)
(0.0012607 0.000698606 -0.0538919)
(0.00101102 0.00173147 -0.0494871)
(0.00170384 0.001068 -0.0495306)
(0.00172437 0.00174599 -0.0424707)
(0.0011594 0.00120341 -0.053026)