/*--------------------------------*- C++ -*----------------------------------*\
| =========                 |                                                 |
| \\      /  F ield         | OpenFOAM: The Open Source CFD Toolbox           |
|  \\    /   O peration     | Version:  2.2.2                                 |
|   \\  /    A nd           | Web:      www.OpenFOAM.org                      |
|    \\/     M anipulation  |                                                 |
\*---------------------------------------------------------------------------*/
FoamFile
{
    version     2.0;
    format      ascii;
    class       volScalarField;
    location    "0.922666";
    object      wallHeatFlux;
}
// * * * * * * * * * * * * * * * * * * * * * * * * * * * * * * * * * * * * * //

dimensions      [1 0 -3 0 0 0 0];

internalField   uniform 0;

boundaryField
{
    outlet
    {
        type            calculated;
        value           uniform 0;
    }
    inlet
    {
        type            calculated;
        value           uniform 0;
    }
    tubeWall_region0
    {
        type            calculated;
        value           uniform 0;
    }
    fluid_to_bedOfSpheres
    {
        type            calculated;
        value           nonuniform List<scalar> 
2688
(
72655.3
82173.8
73100
82097.3
66842.6
66510.7
96086
97479.1
89442.3
99032.9
90289.2
98272.1
86311.4
95944.6
88037.7
96010.9
150750
85329.6
83180.9
86199.5
82706.6
93721.4
77193.2
107601
93243.6
76136
104337
104502
136375
121267
133115
115320
102667
111494
167092
166346
154819
179046
109320
176522
166277
160333
103810
112293
175123
161120
109675
177002
186429
203184
200008
209254
184367
196494
179747
193442
195678
200352
213386
113027
120947
111715
112856
119604
113599
128300
127926
102265
129440
128856
74444.1
84250.3
75568.9
84250.2
68249.3
72180.3
66731.8
68606.9
72301.3
67564.8
70978
66689.4
67910.2
71040
111580
126617
108771
98495.8
124678
111518
125969
99334
110198
125185
102699
112055
90152.5
119285
103431
111322
90609.4
117968
159705
168354
170632
142587
142699
142381
140813
78717.3
89042.4
79225.3
89966.2
149945
149705
148992
147614
144599
146695
143820
72889.1
82246.2
81615.4
72131.7
71703.3
83606.6
74903.8
83532.5
72643.5
82252
73895.4
82198.5
71565.5
77168.6
74423.2
74246.2
82159.1
73825.5
81418.5
80796.9
99852
72075.6
81356.1
82834.1
69701.3
68147.1
70959.7
71379.4
68798.8
68507.2
94902.7
104815
97206.9
83805.5
73314.8
83366.8
80647.8
98254.1
71773.9
79587.6
79995.8
68501
68081.5
70354.7
70118.5
68656.1
68562.7
92544.9
102796
93957.4
121104
114706
114247
129525
130883
133249
118964
132730
117487
173153
159476
168254
150970
123707
128918
137136
141878
169771
182643
146488
162406
148236
151429
179059
160248
152590
132894
146463
145678
141256
139685
115068
122936
127766
102799
116667
131162
176500
158038
154025
175346
151290
120431
128649
131365
137307
167382
170940
170735
156233
179873
143873
163733
147653
149412
176494
153973
134710
145967
147765
115023
124639
128788
103329
117356
133858
141110
140188
176858
157772
155285
190430
187724
212918
212771
228539
231137
194422
198113
182726
186007
216392
210905
219238
203056
189239
195911
216030
221303
209098
196968
213431
217723
222111
223189
206389
214428
194220
214421
208052
219482
186313
201692
190397
217196
219408
208790
228216
231254
202201
209258
216456
217188
222498
204745
211493
250366
240614
243391
230254
231323
228650
238629
238705
226542
239419
256238
234892
233865
253907
251632
231687
231940
232353
237886
235075
234151
239683
237332
234481
252776
254576
262650
72818.7
82240
66784.4
73204.4
66794.7
82563.8
96793.7
97092.8
173610
99473.4
103400
111131
165313
168954
155564
86401.1
94924.4
150809
94792.8
85437.7
76432.3
107614
89672.9
83229.4
85337.5
89027.3
82438.8
104543
136282
121166
134706
117255
93442.6
88368
77949.6
104730
96086.8
181496
102117
110053
177793
96665.1
110691
166038
169615
169131
177865
159715
109629
176397
204334
200223
209571
186290
201767
189074
195736
181667
183907
196564
198596
206136
74849.7
85127.9
67846.7
71715.2
66824.2
68296.8
72593.1
67787.1
71921.2
66254.1
68249.1
75500.8
71074
85831.4
112919
126011
110668
99393.5
125225
109705
116871
109296
116625
110279
110563
125980
126175
126994
100191
126538
111613
124964
98848.6
110559
124009
159193
151406
111565
122246
126904
132474
118168
139643
169302
169495
180484
143337
139331
161490
146556
150427
79171.8
89453.7
149979
149736
149024
147489
144840
146513
143733
83868.3
73993.2
82773.1
81058.4
81420.2
99687
71636.6
80744
82067.7
69075.5
68691
70888
70938.7
68872.4
68320
93554.4
104156
96212.1
71690.8
80694.8
70677.9
70633.6
100148
74018.1
82490.4
71367.6
82262.6
89081.3
100204
74250.8
81569.8
70740.1
81385.4
87099.1
73522.3
73046.9
76233.6
119050
113822
113183
133014
132880
133880
119137
132512
117395
82726.6
73304.1
80132.1
80430.5
98821
71335.8
79145.2
80200.1
68383.6
69658.4
70927.7
71936.8
81305.2
68554.6
68203.5
92126.1
102499
94123.1
89931.9
150203
181537
155915
169253
133072
145633
145692
140388
139962
115174
121639
126774
103986
116088
131116
178744
158411
152426
159194
171423
153454
109488
125979
122698
142690
132688
117434
166867
154101
168222
180846
142119
138252
160733
152566
145856
156337
141107
141158
178513
150247
132901
143317
147484
125233
115206
128053
102677
117537
132070
137733
136967
176466
153733
150661
229541
232353
197521
187096
211360
216038
219167
224812
206128
211238
196080
181085
192280
213923
206562
217279
192273
187145
216629
219345
208754
212229
189282
212733
197677
179608
216146
209960
219157
205748
186975
195562
216628
220318
209314
201397
208216
216436
220581
224372
205228
215088
231420
231150
254725
255081
232284
231312
235769
236205
234030
236285
233346
234154
254790
241069
226275
238267
236013
234353
234836
229650
231430
234832
237065
230579
240504
254212
253304
251474
72991
83408
66703.6
73520.7
67518.1
83466.4
97353.5
97141.9
173410
98222.1
102087
109702
170859
163648
88226.9
95577.6
150331
91240
85524.8
76112.2
103998
101811
133013
115123
129661
115879
90527.1
83109.4
85607.7
89514.9
83293
91611.7
86413.1
76825.3
104464
96033
177440
154220
102959
109684
176280
98670.1
112488
170596
167549
174321
162834
170954
170499
158712
177205
109091
173902
202338
200882
215976
190836
187696
203868
194983
194476
195641
191035
200280
197896
213170
75317.4
86134.4
67341.9
71158
66625.7
67757.9
71000.9
67658.4
70404.5
66920.3
68668.6
75416.7
71002.8
85942.3
113761
128169
110261
99945.5
125314
109909
117556
111111
117997
110612
111111
126731
126749
127603
100286
127825
110509
124003
98421.7
109624
122559
159880
169325
152584
112027
122742
126649
134289
118893
141829
169151
171682
181973
152159
142555
140280
148828
151990
80402
90273.6
149438
149145
149026
146556
143179
146179
144054
82203
72375.4
82440.1
78552.3
78067.3
97301.4
70550
78613.1
79556.7
68228.3
67587
70135
70064.4
68124.6
67732.8
90986.3
101909
92966.7
116726
111429
110158
131223
128448
131180
115613
127617
114213
70410.7
77831.5
69722.8
69706.9
101352
73233.9
82375.4
70693.4
81830.6
89725.2
101771
74295.5
82835.8
71437.6
82131.6
90314.4
71969.9
72443.4
74852.2
81577.6
71521.7
80702.8
78693.5
97311.6
70203.9
78435.8
79544
68743
69148.9
69836.3
71156.9
79358
68734.1
68158.9
91424.8
101506
93139.9
90732.1
179318
160437
170495
134667
147185
147465
142399
140258
116666
121785
128026
104206
117321
130688
176533
156766
154527
161157
151765
111312
129219
123181
141453
133297
118571
169842
178802
156899
144007
140193
150076
146835
142063
142871
152122
176321
159440
132330
144703
147389
122846
112995
126436
102346
115562
131804
137555
137809
176282
156060
154426
228472
233022
197984
188151
208876
218362
214716
225183
204806
211175
198380
182864
217900
209563
221068
193260
187615
216238
220148
207259
212751
187775
211630
192061
181439
186725
216205
209138
218423
189211
200698
214972
219765
207448
196407
208341
216334
215358
217719
201762
212874
228768
229385
238362
228784
236459
236462
238256
236832
235843
233655
235140
225819
239533
252521
254229
240276
236182
233649
235068
236331
233483
241583
240084
252783
254637
239405
256300
250981
83129.9
97431.4
83348
97233.8
73234.3
66790.8
73323.9
66866.9
150296
179157
148528
95768.1
103536
110036
176198
173787
152045
97019.9
104415
110169
173635
102327
135486
117138
130381
115068
91547
85457.2
87704
77070.1
104482
92181.5
84756.7
87977.7
77980.4
104046
91457.4
83217.6
88968.4
82543.4
99246.7
100087
168594
167757
181173
177069
163368
112665
111774
174788
169403
162104
199493
203358
191758
197521
191996
198288
198006
214301
193490
186197
185791
112463
124474
110040
100157
86457.9
123388
112245
124971
99846.2
86486.3
109809
122526
67659.4
70324.4
66378.9
68651.2
75661.3
70822.8
67502.2
70475.9
66479.4
68258
75426.7
70688.5
113384
122774
112937
113613
123505
113744
134059
133957
144128
102153
131034
131583
149221
149052
148209
146457
142836
146093
143077
187994
155828
131931
143382
143191
138465
137461
116596
122021
125426
104842
90759.6
117110
128485
176687
155440
151316
177632
159864
171210
133967
145678
147545
115606
122020
127410
104437
90395.6
116800
129414
138688
137813
173112
155299
153429
118040
111884
111483
130494
130223
131150
116339
130634
114469
82457.5
72524
81535.1
79520.7
79494.9
97212.6
70926.1
79006
80148.3
67511.7
69184.1
69752
71638
80428.2
68158.9
66967.5
91473.5
101927
93369.6
81659.5
72299.3
80650.9
79183.6
78838.4
97440.1
70813.2
79035.5
79912.2
68357.7
69160.6
70024
71858
80423.3
69109.6
68357.6
91558.9
101331
93638.3
70984.2
70304.1
70217.1
103119
73735.4
83019.5
70995.4
82666.3
90581.2
103438
74817.4
82403.3
71600
82039.4
90103.6
72532.2
72602.4
75878.7
112959
119586
113769
120376
153571
153493
138296
138745
171905
152918
127575
124058
141027
130578
166192
169568
168525
176841
155532
140280
157332
150629
145002
164229
180692
156493
127667
125061
142458
135760
165459
167404
175996
155161
141832
154206
146891
199808
207613
216965
217797
222014
199543
206476
211695
230895
230555
183835
215374
208876
218823
184865
197723
185182
187468
214812
219275
209805
216244
195325
206535
214940
214975
220099
201386
213341
230475
230577
193023
196858
213159
210131
215672
185115
198836
186337
214141
218778
210569
215618
223771
228056
225196
232433
236301
249830
251431
234466
235438
254123
225748
233046
233583
234773
238415
230743
237320
234258
256257
244638
228434
253268
225504
241473
260792
241013
263083
260659
259266
264889
254005
268801
264150
264336
257943
255912
259894
278295
282512
441477
417911
284382
280289
285550
443293
409733
439866
439524
434705
434844
258247
271214
261971
248553
260261
437188
419900
420388
433180
423534
424290
284112
286865
359556
365487
291016
284040
276674
373512
344874
341282
348185
340122
356179
366352
420787
413453
436147
442903
418895
369988
280134
371875
351229
290273
340676
352575
331367
356640
365961
418324
409046
428384
429927
417858
375494
380598
414493
407228
419295
421251
471036
435066
477933
498953
437548
477548
479913
477889
471866
459678
472322
469618
270865
262576
271521
281644
310611
301039
296182
290097
314660
307009
360376
416607
406582
410066
414069
441404
379472
290094
303012
286434
287341
298156
287957
283332
307909
313020
310932
351155
410192
408671
422100
438070
408140
387860
409407
410147
411115
417823
413492
412462
451455
407967
409183
436580
436668
428586
453142
434608
436728
447335
434460
451881
435201
440546
448672
273643
270986
470990
454934
456520
477207
463157
430611
443318
435524
433743
435458
430415
442080
433722
434761
435644
447428
442368
436592
315550
314663
335222
334276
286861
308349
309947
329262
332119
290907
305841
286324
295729
298071
298188
279555
297149
335331
333905
322717
352769
333518
347037
328740
325453
349292
331896
323304
339693
338735
317353
318020
387235
351131
335076
352637
341448
360310
376096
384502
369988
388413
380948
375480
376671
390198
394944
409334
403288
390909
390204
383262
373100
416547
371510
368997
339774
369607
385732
370581
393278
421188
406841
411279
445565
383519
414232
403316
391365
381457
382601
300345
287235
298748
282450
299893
332658
334005
323739
349931
330177
335542
334006
323274
353402
334881
319465
340535
339811
287503
308078
309155
332950
321736
312769
322308
367785
357418
313324
352505
346795
367559
365982
379389
375713
387807
375849
381595
384686
395538
398998
408724
399800
396869
393145
380410
375331
408026
379809
366072
351263
371795
392096
370514
390569
418187
402461
414504
434881
388691
401058
433882
396558
391761
383521
382549
379541
382922
417007
408861
414086
409992
432429
431309
467241
473490
466578
460203
473631
465992
432895
429176
462968
434298
449509
435883
447380
451525
474602
476722
470226
452638
469387
457118
446967
478302
457342
443231
427462
477503
436053
443190
443672
446719
451564
473387
475944
470303
479553
475248
476211
469674
465524
481888
481346
488367
471915
468818
483692
481932
470552
461621
488313
501568
270897
272936
264655
258412
265726
259688
267524
267619
256182
251660
254855
257067
263651
259591
286381
279880
440714
435304
290816
284718
443477
411538
440891
420517
439636
436133
270887
259032
287968
359495
376296
341463
480764
420696
425691
442712
478459
283321
281346
346089
344169
341478
286175
279467
372340
355676
343815
424926
439193
413976
371177
358572
365739
414265
433671
354768
378575
430316
408921
416057
434935
404178
281202
281752
290710
341402
344378
345449
368768
425927
429751
437678
423088
376251
429241
422849
420521
476895
478007
473675
460106
465740
467083
478122
422338
442055
478008
267417
250866
261215
252313
260044
270764
299851
295410
279660
302220
312075
283203
431341
451493
437034
436638
437413
446441
287705
307962
308039
285452
304491
280748
297325
293911
299199
424872
393691
408857
410640
442081
372943
413299
412051
416020
413190
411709
415902
410490
409369
438020
282655
318399
410016
407001
422172
439630
409741
383246
434049
450234
434895
437231
438126
447272
272165
267403
282313
309392
328937
324343
290618
291176
321920
291262
294391
289030
325511
323751
323405
353260
324519
330554
330242
334753
349156
337330
328765
333943
340323
339025
464621
473377
465180
454696
460431
473246
458574
425072
448900
487393
430054
429304
442026
446079
446497
450597
475703
476502
471740
309819
301695
337365
317588
318718
340869
382051
359441
328013
354778
346682
294136
285165
302599
278769
305099
312774
331564
331666
321390
345184
331656
328646
353519
327914
332614
324949
330836
341606
338320
396488
383857
359134
345277
365753
390607
382630
453509
390919
431896
393753
407855
438842
383308
401197
390111
396636
381323
380202
364496
363731
381043
379013
384642
378989
377749
381468
390542
392673
407245
404685
390155
379241
379082
372658
380114
377362
383287
408574
414034
436484
408847
410291
393506
431732
303223
312780
337613
289174
308674
314480
316316
320033
363270
355842
324304
330657
354523
345066
324043
373507
370107
388545
380798
384353
381730
381270
398182
399229
403293
391937
390854
371040
381557
410356
377867
366311
355541
368734
386212
369736
397659
423580
400198
415247
436691
398619
396274
391283
388571
385717
381766
467550
459666
459827
466752
441982
432025
439989
434868
424560
434814
431499
429496
441103
449439
440556
486251
474534
476557
477924
477951
481137
481968
486279
472074
470784
482621
489640
472395
473755
485459
489437
464875
473043
468240
455885
473023
466160
437858
429942
467327
432292
431421
442619
433891
446398
453057
481485
477441
465030
275319
270387
445915
264031
259710
263642
258140
263195
261993
257177
254135
255139
255949
265197
273658
287480
276625
439018
435303
283446
279043
285546
442701
408103
281277
282299
442572
414358
437627
435647
259709
243801
258139
248788
264629
289833
287205
361301
375243
345053
495976
419164
427550
444665
477594
341885
347005
331979
287840
278265
380144
362246
346976
419810
439029
420950
375579
360502
366066
401984
444226
362137
385775
437768
403458
414857
429762
407826
290837
345428
348916
338792
371004
425984
424274
447477
414653
366095
481595
478293
471870
469869
470912
469049
427675
424611
424020
485856
414121
440405
477711
273598
259844
272920
299087
297011
276721
301765
313035
284391
443602
449223
435870
437134
441045
446494
282696
313952
307678
309639
337770
290201
303666
284510
283992
298258
285081
415027
408921
407165
418114
441591
390181
412204
412127
418885
408399
412179
413253
407016
409566
451518
282074
306753
321022
315187
369744
412388
402325
415862
440162
410078
374941
441135
446443
435879
437687
436048
444210
276947
275751
286780
307680
307750
332603
323658
291227
294934
307407
289012
288833
299311
337537
333395
328127
358768
328875
335292
330144
336419
352228
340790
323975
332560
335567
335694
458845
473008
458261
453002
463236
479753
459657
442672
442403
465259
437756
430572
445532
438477
446378
450599
475887
478576
476187
320657
320045
334306
373669
358021
324537
355604
346643
298876
286389
302026
277848
300968
312187
330215
330325
320800
352295
330213
329372
349775
338489
342509
321364
331271
338684
337598
401315
385801
360258
348783
367305
388815
374615
429564
387736
419727
402961
413855
448761
382674
414137
395268
387442
381674
381107
366707
365602
376595
377181
384268
377771
375728
376009
383143
400311
413644
399731
392827
378721
379311
375520
366934
368265
383291
403967
416174
435071
408549
416869
394638
431873
287292
309066
311527
309767
312946
370841
356250
326119
329043
347501
341355
327220
369349
371795
378531
382254
391972
382581
382517
398389
397026
406867
400602
380517
370084
372960
403574
376136
364676
348247
370682
386199
373035
399121
427294
403693
412819
438476
397003
400756
451569
396087
394744
380630
382897
475901
476131
475424
475096
470942
481851
482909
489892
475088
469231
486806
491998
471440
465409
484578
492456
465256
461637
455468
471647
440326
429693
435520
435500
420040
437179
430359
428845
435452
445999
436844
460608
470838
463138
449802
476045
461160
444729
435669
472704
435413
431055
441929
439285
443317
447994
479399
476900
471567
275755
276430
262687
266977
258455
263495
268664
262407
267904
265414
256250
252915
257307
254265
286116
285328
440990
439787
442942
438858
418834
283772
290806
416962
436394
436734
259649
272808
276026
278458
291039
339465
342882
342233
280104
278502
346695
347570
335483
360337
357329
484664
478143
468279
467829
469826
464095
431260
417627
443040
421714
352603
352239
377699
402147
437274
414886
412494
442935
409226
286958
277626
369748
344225
415305
418392
376312
365433
431413
280956
367800
343440
426396
419795
366753
360000
429311
480510
425829
451189
478386
489305
425701
437654
477951
423309
425789
253728
267052
270922
262072
258061
244591
312912
313658
440809
437107
442154
438653
409709
410701
409409
413034
408790
411765
403214
406169
439733
281391
310675
289462
419499
403378
411452
417765
373039
289652
309247
290368
293548
295344
298831
288059
307837
308688
410269
408081
416299
407760
377401
440750
450912
435639
439577
446618
433143
460080
436615
434284
449307
275379
273990
309912
304348
346609
288232
308924
311425
323052
321581
329901
371230
358242
328461
330865
358902
344559
326732
283385
302116
310645
351112
311778
318755
320259
340144
379589
360117
324556
327580
352184
343137
324380
333526
335311
478772
475771
475264
474739
473511
482126
481989
487983
471427
466118
486955
504956
473576
469415
483012
483744
435766
430757
439277
432624
382512
382700
377959
380207
403239
420961
387487
431905
400355
415833
393153
432381
293950
308489
295753
297070
293750
299037
294606
277373
305148
283321
333438
333044
323498
344699
326819
333077
331078
350759
332759
326248
330168
330359
428499
362934
369198
355225
370719
391367
359749
448037
423658
390444
407456
411950
383698
406193
392746
390029
383259
380108
370677
369018
382772
387142
381972
374324
380421
395940
395249
404415
402840
374084
379366
380034
302765
296561
282496
306402
288787
337460
336185
325600
360127
334378
335808
330554
349371
334550
326739
340295
338549
398381
386882
348427
333419
368557
392886
387258
426480
397876
404583
414343
396011
398877
463271
391471
399931
378729
383735
372261
366079
383515
383488
379173
375700
378519
401134
395894
402476
403529
370306
382350
380789
455617
475543
459188
452724
461057
473520
460478
438271
431721
461876
440813
445830
431964
448685
451971
469040
475062
467631
464598
474520
460348
458152
462096
478437
462580
430148
438426
475403
433866
445970
433763
449768
449788
471519
477479
469007
465729
462224
463926
426374
440262
433304
434914
428084
442267
432985
431744
445916
443232
443562
272594
271183
445199
)
;
    }
}


// ************************************************************************* //
