#           x         0.001         0.001         0.001
#           y         0.001         0.001         0.001
#           z           0.6          -0.6            -1
#        Time
      40.1406       485.944       549.331       461.085
      40.4531       484.816       548.787       461.064
      40.7656       483.859       548.293       460.982
      41.0781       483.051       547.851       460.848
      41.3906       482.347       547.446       460.681
      41.7031        481.72       547.069       460.492
      42.0156        481.15       546.713       460.289
      42.3281       480.626       546.375       460.075
      42.6406        480.14       546.051       459.855
      42.9531       479.685        545.74       459.631
      43.2656       479.256        545.44       459.404
      43.5781        478.85       545.151       459.177
      43.8906       478.463        544.87        458.95
      44.2031       478.094       544.598       458.725
      44.5156       477.739       544.335       458.503
      44.8281       477.398       544.078       458.283
      45.1406       477.068       543.829       458.067
      45.4531        476.75       543.586       457.855
      45.7656       476.441       543.349       457.648
      46.0781        476.14       543.118       457.445
      46.3906       475.848       542.893       457.247
      46.7031       475.563       542.673       457.053
      47.0156       475.285       542.457       456.864
      47.3281       475.014       542.246       456.679
      47.6406       474.748        542.04       456.499
      47.9531       474.487       541.837       456.323
      48.2656       474.232       541.638       456.151
      48.5781       473.981       541.443       455.983
      48.8906       473.735       541.252       455.819
      49.2031       473.493       541.063       455.659
      49.5156       473.255       540.878       455.501
      49.8281       473.021       540.695       455.348
      50.1406        472.79       540.515       455.197
      50.4531       472.562       540.338       455.049
      50.7656       472.338       540.163       454.904
      51.0781       472.117        539.99       454.762
      51.3906       471.899        539.82       454.622
      51.7031       471.683       539.651       454.484
      52.0156       471.471       539.485       454.349
      52.3281        471.26        539.32       454.215
      52.6406       471.053       539.158       454.084
      52.9531       470.847       538.997       453.955
      53.2656       470.644       538.837       453.827
      53.5781       470.443        538.68       453.701
      53.8906       470.244       538.523       453.577
      54.2031       470.047       538.368       453.454
      54.5156       469.853       538.215       453.332
      54.8281        469.66       538.063       453.212
      55.1406       469.468       537.912       453.094
      55.4531       469.279       537.762       452.976
      55.7656       469.091       537.614        452.86
      56.0781       468.906       537.466       452.745
      56.3906       468.721        537.32       452.631
      56.7031       468.538       537.175       452.518
      57.0156       468.357        537.03       452.406
      57.3281       468.177       536.887       452.295
      57.6406       467.999       536.745       452.186
      57.9531       467.822       536.603       452.076
      58.2656       467.646       536.463       451.968
      58.5781       467.472       536.323       451.861
      58.8906       467.299       536.184       451.754
      59.2031       467.127       536.046       451.649
      59.5156       466.957       535.909       451.544
      59.8281       466.787       535.773        451.44
      60.1406       466.619       535.637       451.336
      60.4531       466.452       535.502       451.233
      60.7656       466.286       535.367       451.131
      61.0781       466.122       535.234       451.029
      61.3906       465.958       535.101       450.929
      61.7031       465.795       534.968       450.828
      62.0156       465.633       534.836       450.729
      62.3281       465.473       534.705        450.63
      62.6406       465.313       534.575       450.531
      62.9531       465.154       534.445       450.433
      63.2656       464.996       534.315       450.336
      63.5781       464.839       534.186       450.239
      63.8906       464.683       534.058       450.142
      64.2031       464.528        533.93       450.046
      64.5156       464.373       533.802       449.951
      64.8281        464.22       533.676       449.856
      65.1406       464.067       533.549       449.761
      65.4531       463.915       533.423       449.667
      65.7656       463.764       533.298       449.574
      66.0781       463.614       533.173        449.48
      66.3906       463.464       533.048       449.388
      66.7031       463.315       532.924       449.295
      67.0156       463.167         532.8       449.203
      67.3281        463.02       532.677       449.112
      67.6406       462.873       532.554        449.02
      67.9531       462.727       532.431        448.93
      68.2656       462.582       532.309       448.839
      68.5781       462.437       532.188       448.749
      68.8906       462.294       532.066       448.659
      69.2031        462.15       531.945        448.57
      69.5156       462.008       531.824       448.481
      69.8281       461.866       531.704       448.392
      70.1406       461.724       531.584       448.303
      70.4531       461.583       531.464       448.215
      70.7656       461.443       531.345       448.127
      71.0781       461.304       531.226        448.04
      71.3906       461.165       531.107       447.953
      71.7031       461.026       530.989       447.866
      72.0156       460.888       530.871       447.779
      72.3281       460.751       530.753       447.693
      72.6406       460.614       530.635       447.607
      72.9531       460.478       530.518       447.521
      73.2656       460.342       530.401       447.435
      73.5781       460.207       530.284        447.35
      73.8906       460.072       530.168       447.265
      74.2031       459.938       530.052        447.18
      74.5156       459.805       529.936       447.096
      74.8281       459.671        529.82       447.011
      75.1406       459.539       529.705       446.927
      75.4531       459.406        529.59       446.843
      75.7656       459.275       529.475        446.76
      76.0781       459.144        529.36       446.676
      76.3906       459.013       529.246       446.593
      76.7031       458.882       529.131        446.51
      77.0156       458.752       529.017       446.428
      77.3281       458.623       528.904       446.345
      77.6406       458.494        528.79       446.263
      77.9531       458.366       528.677       446.181
      78.2656       458.237       528.563       446.099
      78.5781        458.11        528.45       446.017
      78.8906       457.982       528.338       445.936
      79.2031       457.855       528.225       445.854
      79.5156       457.729       528.113       445.773
      79.8281       457.603       528.001       445.692
      80.1406       457.477       527.889       445.612
      80.4531       457.352       527.777       445.531
      80.7656       457.227       527.665       445.451
      81.0781       457.103       527.554       445.371
      81.3906        456.98       527.444       445.291
      81.7031       456.857       527.334       445.212
      82.0156       456.733       527.222       445.132
      82.3281       456.611       527.113       445.053
      82.6406       456.489       527.003       444.975
      82.9531       456.367       526.893       444.896
      83.2656       456.245       526.783       444.817
      83.5781       456.124       526.673       444.739
      83.8906       456.003       526.564       444.661
      84.2031       455.882       526.454       444.583
      84.5156       455.762       526.345       444.505
      84.8281       455.643       526.236       444.427
      85.1406       455.524       526.128        444.35
      85.4531       455.404       526.019       444.272
      85.7656       455.285        525.91       444.195
      86.0781       455.167       525.802       444.118
      86.3906       455.049       525.694       444.041
      86.7031       454.931       525.585       443.964
      87.0156       454.813       525.477       443.887
      87.3281       454.695       525.369        443.81
      87.6406       454.578       525.261       443.734
      87.9531       454.461       525.153       443.657
      88.2656       454.344       525.045       443.581
      88.5781       454.228       524.937       443.504
      88.8906       454.112        524.83       443.428
      89.2031       453.996       524.722       443.352
      89.5156       453.881       524.615       443.276
      89.8281       453.765       524.507         443.2
      90.1406        453.65         524.4       443.124
      90.4531       453.536       524.293       443.048
      90.7656       453.421       524.186       442.972
      91.0781       453.307       524.079       442.897
      91.3906       453.193       523.972       442.821
      91.7031        453.08       523.865       442.746
      92.0156       452.966       523.759        442.67
      92.3281       452.853       523.652       442.595
      92.6406        452.74       523.546        442.52
      92.9531       452.628       523.439       442.445
      93.2656       452.516       523.333        442.37
      93.5781       452.404       523.227       442.295
      93.8906       452.292       523.121        442.22
      94.2031        452.18       523.015       442.146
      94.5156       452.069       522.909       442.071
      94.8281       451.958       522.803       441.997
      95.1406       451.847       522.697       441.922
      95.4531       451.737       522.592       441.848
      95.7656       451.627       522.486       441.774
      96.0781       451.517       522.381         441.7
      96.3906       451.407       522.275       441.626
      96.7031       451.297        522.17       441.552
      97.0156       451.188       522.065       441.478
      97.3281       451.079        521.96       441.404
      97.6406        450.97       521.855       441.331
      97.9531       450.861        521.75       441.257
      98.2656       450.753       521.645       441.184
      98.5781       450.645        521.54        441.11
      98.8906       450.537       521.435       441.037
      99.2031       450.429       521.331       440.964
      99.5156       450.322       521.226       440.891
      99.8281       450.214       521.122       440.818
      100.141       450.107       521.017       440.745
      100.453           450       520.913       440.672
      100.766       449.894       520.809       440.599
      101.078       449.787       520.704       440.526
      101.391       449.681         520.6       440.454
      101.703       449.575       520.496       440.381
      102.016       449.469       520.392       440.308
      102.328       449.364       520.288       440.236
      102.641       449.258       520.184       440.164
      102.953       449.153        520.08       440.091
      103.266       449.048       519.977       440.019
      103.578       448.944       519.873       439.947
      103.891       448.839       519.769       439.875
      104.203       448.735       519.666       439.803
      104.516       448.631       519.562       439.731
      104.828       448.527       519.459       439.659
      105.141       448.423       519.356       439.587
      105.453       448.319       519.252       439.516
      105.766       448.216       519.149       439.444
      106.078       448.113       519.046       439.373
      106.391        448.01       518.943       439.301
      106.703       447.907        518.84        439.23
      107.016       447.804       518.736       439.158
      107.328       447.702       518.633       439.087
      107.641       447.599       518.531       439.016
      107.953       447.497       518.428       438.944
      108.266       447.395       518.325       438.873
      108.578       447.294       518.222       438.802
      108.891       447.192       518.119       438.731
      109.203       447.091       518.017        438.66
      109.516        446.99       517.914       438.589
      109.828       446.889       517.812       438.519
      110.141       446.788       517.709       438.448
      110.453       446.687       517.607       438.377
      110.766       446.587       517.504       438.306
      111.078       446.486       517.402       438.236
      111.391       446.386       517.299       438.165
      111.703       446.286       517.197       438.095
      112.016       446.186       517.095       438.024
      112.328       446.087       516.993       437.954
      112.641       445.987       516.891       437.884
      112.953       445.888       516.788       437.813
      113.266       445.789       516.686       437.743
      113.578        445.69       516.584       437.673
      113.891       445.591       516.482       437.603
      114.203       445.492       516.381       437.533
      114.516       445.394       516.279       437.463
      114.828       445.296       516.177       437.393
      115.141       445.197       516.075       437.323
      115.453       445.099       515.973       437.253
      115.766       445.002       515.872       437.183
      116.078       444.904        515.77       437.114
      116.391       444.806       515.668       437.044
      116.703       444.709       515.567       436.974
      117.016       444.612       515.465       436.905
      117.328       444.515       515.364       436.835
      117.641       444.418       515.262       436.766
      117.953       444.321       515.161       436.696
      118.266       444.224       515.059       436.627
      118.578       444.128       514.958       436.558
      118.891       444.031       514.856       436.488
      119.203       443.935       514.755       436.419
      119.516       443.839       514.654        436.35
      119.828       443.743       514.553       436.281
      120.141       443.648       514.451       436.212
      120.453       443.552        514.35       436.142
      120.766       443.457       514.249       436.073
      121.078       443.361       514.148       436.004
      121.391       443.266       514.047       435.935
      121.703       443.171       513.946       435.867
      122.016       443.076       513.845       435.798
      122.328       442.981       513.744       435.729
      122.641       442.887       513.643        435.66
      122.953       442.792       513.542       435.591
      123.266       442.698       513.441       435.523
      123.578       442.604       513.341       435.454
      123.891        442.51        513.24       435.385
      124.203       442.416       513.139       435.317
      124.516       442.322       513.038       435.248
      124.828       442.229       512.938        435.18
      125.141       442.135       512.837       435.111
      125.453       442.042       512.736       435.043
      125.766       441.948       512.636       434.975
      126.078       441.855       512.535       434.906
      126.391       441.762       512.435       434.838
      126.703       441.669       512.334        434.77
      127.016       441.577       512.234       434.702
      127.328       441.484       512.133       434.634
      127.641       441.392       512.033       434.565
      127.953       441.299       511.932       434.497
      128.266       441.207       511.832       434.429
      128.578       441.115       511.731       434.361
      128.891       441.023       511.631       434.293
      129.203       440.931       511.531       434.225
      129.516        440.84       511.431       434.157
      129.828       440.748        511.33        434.09
      130.141       440.657        511.23       434.022
      130.453       440.565        511.13       433.954
      130.766       440.474        511.03       433.886
      131.078       440.383        510.93       433.818
      131.391       440.292        510.83       433.751
      131.703       440.201       510.729       433.683
      132.016       440.111       510.629       433.616
      132.328        440.02       510.529       433.548
      132.641        439.93       510.429        433.48
      132.953       439.839       510.329       433.413
      133.266       439.749       510.229       433.345
      133.578       439.659       510.129       433.278
      133.891       439.569        510.03       433.211
      134.203       439.479        509.93       433.143
      134.516       439.389        509.83       433.076
      134.828         439.3        509.73       433.009
      135.141        439.21        509.63       432.941
      135.453       439.121        509.53       432.874
      135.766       439.031       509.431       432.807
      136.078       438.942       509.331        432.74
      136.391       438.853       509.231       432.673
      136.703       438.764       509.132       432.606
      137.016       438.675       509.032       432.539
      137.328       438.587       508.932       432.471
      137.641       438.498       508.833       432.404
      137.953       438.409       508.733       432.338
      138.266       438.321       508.634       432.271
      138.578       438.233       508.534       432.204
      138.891       438.145       508.434       432.137
      139.203       438.057       508.335        432.07
      139.516       437.969       508.235       432.003
      139.828       437.881       508.136       431.936
      140.141       437.793       508.037        431.87
      140.453       437.705       507.937       431.803
      140.766       437.618       507.838       431.736
      141.078       437.531       507.738        431.67
      141.391       437.443       507.639       431.603
      141.703       437.356        507.54       431.536
      142.016       437.269       507.441        431.47
      142.328       437.182       507.341       431.403
      142.641       437.095       507.242       431.337
      142.953       437.008       507.143        431.27
      143.266       436.922       507.044       431.204
      143.578       436.835       506.944       431.138
      143.891       436.749       506.845       431.071
      144.203       436.662       506.746       431.005
      144.516       436.576       506.647       430.938
      144.828        436.49       506.548       430.872
      145.141       436.404       506.449       430.806
      145.453       436.318        506.35        430.74
      145.766       436.232       506.251       430.674
      146.078       436.146       506.152       430.607
      146.391       436.061       506.053       430.541
      146.703       435.975       505.954       430.475
      147.016        435.89       505.855       430.409
      147.328       435.804       505.756       430.343
      147.641       435.719       505.657       430.277
      147.953       435.634       505.558       430.211
      148.266       435.549        505.46       430.145
      148.578       435.464       505.361       430.079
      148.891       435.379       505.262       430.013
      149.203       435.294       505.163       429.947
      149.516        435.21       505.064       429.881
      149.828       435.125       504.966       429.816
      150.141       435.041       504.867        429.75
      150.453       434.956       504.768       429.684
      150.766       434.872        504.67       429.618
      151.078       434.788       504.571       429.553
      151.391       434.704       504.472       429.487
      151.703        434.62       504.374       429.421
      152.016       434.536       504.275       429.356
      152.328       434.452       504.177        429.29
      152.641       434.368       504.078       429.224
      152.953       434.285        503.98       429.159
      153.266       434.201       503.881       429.093
      153.578       434.118       503.783       429.028
      153.891       434.034       503.684       428.962
      154.203       433.951       503.586       428.897
      154.516       433.868       503.487       428.832
      154.828       433.785       503.389       428.766
      155.141       433.702       503.291       428.701
      155.453       433.619       503.192       428.636
      155.766       433.536       503.094        428.57
      156.078       433.453       502.996       428.505
      156.391       433.371       502.897        428.44
      156.703       433.288       502.799       428.375
      157.016       433.206       502.701       428.309
      157.328       433.124       502.603       428.244
      157.641       433.041       502.504       428.179
      157.953       432.959       502.406       428.114
      158.266       432.877       502.308       428.049
      158.578       432.795        502.21       427.984
      158.891       432.713       502.112       427.919
      159.203       432.631       502.014       427.854
      159.516        432.55       501.916       427.789
      159.828       432.468       501.818       427.724
      160.141       432.386        501.72       427.659
      160.453       432.305       501.622       427.594
      160.766       432.224       501.524       427.529
      161.078       432.142       501.426       427.464
      161.391       432.061       501.328       427.399
      161.703        431.98        501.23       427.335
      162.016       431.899       501.132        427.27
      162.328       431.818       501.034       427.205
      162.641       431.737       500.936        427.14
      162.953       431.656       500.839       427.076
      163.266       431.576       500.741       427.011
      163.578       431.495       500.643       426.946
      163.891       431.414       500.545       426.882
      164.203       431.334       500.448       426.817
      164.516       431.254        500.35       426.753
      164.828       431.173       500.252       426.688
      165.141       431.093       500.155       426.624
      165.453       431.013       500.057       426.559
      165.766       430.933       499.959       426.495
      166.078       430.853       499.862        426.43
      166.391       430.773       499.764       426.366
      166.703       430.693       499.667       426.301
      167.016       430.613       499.569       426.237
      167.328       430.534       499.472       426.173
      167.641       430.454       499.374       426.108
      167.953       430.375       499.277       426.044
      168.266       430.295       499.179        425.98
      168.578       430.216       499.082       425.916
      168.891       430.137       498.984       425.851
      169.203       430.058       498.887       425.787
      169.516       429.979        498.79       425.723
      169.828         429.9       498.692       425.659
      170.141       429.821       498.595       425.595
      170.453       429.742       498.498       425.531
      170.766       429.663         498.4       425.467
      171.078       429.584       498.303       425.403
      171.391       429.506       498.206       425.339
      171.703       429.427       498.109       425.275
      172.016       429.349       498.012       425.211
      172.328        429.27       497.915       425.147
      172.641       429.192       497.817       425.083
      172.953       429.114        497.72       425.019
      173.266       429.036       497.623       424.955
      173.578       428.958       497.526       424.891
      173.891        428.88       497.429       424.828
      174.203       428.802       497.332       424.764
      174.516       428.724       497.235         424.7
      174.828       428.646       497.138       424.636
      175.141       428.568       497.041       424.573
      175.453       428.491       496.944       424.509
      175.766       428.413       496.847       424.445
      176.078       428.336       496.751       424.382
      176.391       428.258       496.654       424.318
      176.703       428.181       496.557       424.254
      177.016       428.104        496.46       424.191
      177.328       428.026       496.363       424.127
      177.641       427.949       496.267       424.064
      177.953       427.872        496.17           424
      178.266       427.795       496.073       423.937
      178.578       427.719       495.976       423.873
      178.891       427.642        495.88        423.81
      179.203       427.565       495.783       423.747
      179.516       427.488       495.687       423.683
      179.828       427.412        495.59        423.62
      180.141       427.335       495.493       423.557
      180.453       427.259       495.397       423.493
      180.766       427.182         495.3        423.43
      181.078       427.106       495.204       423.367
      181.391        427.03       495.107       423.304
      181.703       426.954       495.011        423.24
      182.016       426.878       494.915       423.177
      182.328       426.802       494.818       423.114
      182.641       426.726       494.722       423.051
      182.953        426.65       494.625       422.988
      183.266       426.574       494.529       422.925
      183.578       426.498       494.433       422.862
      183.891       426.422       494.337       422.799
      184.203       426.347        494.24       422.736
      184.516       426.271       494.144       422.673
      184.828       426.196       494.048        422.61
      185.141        426.12       493.952       422.547
      185.453       426.045       493.855       422.484
      185.766        425.97       493.759       422.421
      186.078       425.895       493.663       422.358
      186.391        425.82       493.567       422.295
      186.703       425.745       493.471       422.233
      187.016        425.67       493.375        422.17
      187.328       425.595       493.279       422.107
      187.641        425.52       493.183       422.044
      187.953       425.445       493.087       421.982
      188.266        425.37       492.991       421.919
      188.578       425.296       492.895       421.856
      188.891       425.221       492.799       421.794
      189.203       425.147       492.704       421.731
      189.516       425.072       492.608       421.669
      189.828       424.998       492.512       421.606
      190.141       424.923       492.416       421.543
      190.453       424.849        492.32       421.481
      190.766       424.775       492.225       421.418
      191.078       424.701       492.129       421.356
      191.391       424.627       492.033       421.294
      191.703       424.553       491.938       421.231
      192.016       424.479       491.842       421.169
      192.328       424.405       491.746       421.106
      192.641       424.331       491.651       421.044
      192.953       424.258       491.555       420.982
      193.266       424.184        491.46       420.919
      193.578        424.11       491.364       420.857
      193.891       424.037       491.269       420.795
      194.203       423.963       491.173       420.733
      194.516        423.89       491.078       420.671
      194.828       423.817       490.983       420.608
      195.141       423.744       490.887       420.546
      195.453        423.67       490.792       420.484
      195.766       423.597       490.696       420.422
      196.078       423.524       490.601        420.36
      196.391       423.451       490.506       420.298
      196.703       423.378       490.411       420.236
      197.016       423.305       490.315       420.174
      197.328       423.232        490.22       420.112
      197.641        423.16       490.125        420.05
      197.953       423.087        490.03       419.988
      198.266       423.014       489.935       419.926
      198.578       422.942        489.84       419.864
      198.891       422.869       489.745       419.802
      199.203       422.797        489.65       419.741
      199.516       422.725       489.555       419.679
      199.828       422.652        489.46       419.617
      200.141        422.58       489.365       419.555
      200.453       422.508        489.27       419.494
      200.766       422.436       489.175       419.432
      201.078       422.364        489.08        419.37
      201.391       422.292       488.985       419.309
      201.703        422.22        488.89       419.247
      202.016       422.148       488.796       419.185
      202.328       422.076       488.701       419.124
      202.641       422.004       488.606       419.062
      202.953       421.933       488.511       419.001
      203.266       421.861       488.417       418.939
      203.578       421.789       488.322       418.878
      203.891       421.718       488.228       418.816
      204.203       421.646       488.133       418.755
      204.516       421.575       488.038       418.693
      204.828       421.504       487.944       418.632
      205.141       421.432       487.849       418.571
      205.453       421.361       487.755       418.509
      205.766        421.29        487.66       418.448
      206.078       421.219       487.566       418.387