/*--------------------------------*- C++ -*----------------------------------*\
| =========                 |                                                 |
| \\      /  F ield         | OpenFOAM: The Open Source CFD Toolbox           |
|  \\    /   O peration     | Version:  2.3.0                                 |
|   \\  /    A nd           | Web:      www.OpenFOAM.org                      |
|    \\/     M anipulation  |                                                 |
\*---------------------------------------------------------------------------*/
FoamFile
{
    version     2.0;
    format      ascii;
    class       volScalarField;
    location    "0/fluid";
    object      wallHeatFlux;
}
// * * * * * * * * * * * * * * * * * * * * * * * * * * * * * * * * * * * * * //

dimensions      [1 0 -3 0 0 0 0];

internalField   uniform 0;

boundaryField
{
    outlet
    {
        type            calculated;
        value           uniform 0;
    }
    inlet
    {
        type            calculated;
        value           uniform 0;
    }
    tubeWall
    {
        type            calculated;
        value           uniform 0;
    }
    fluid_to_bedOfSpheres
    {
        type            calculated;
        value           nonuniform List<scalar> 
2688
(
2114832.96739
2113506.04913
2114636.49709
2111895.45645
2113298.67994
2115774.9039
2115722.25069
2115305.98546
2117433.73347
2115067.94889
2118144.01385
2114950.11551
2114920.48515
2114443.21772
2115115.12903
2115187.76938
2115135.29801
2112663.60909
2113823.37905
2116218.42229
2114512.64811
2113490.88971
2112209.75739
2114917.40774
2112851.01136
2114638.43193
2114497.98058
2116103.3022
2114861.50859
2115605.38661
2114550.9543
2115027.67235
2115377.03538
2114341.76764
2115401.30069
2115690.43666
2113454.35676
2113437.55113
2114436.12271
2113068.69457
2113342.56363
2116131.87441
2115137.88914
2115923.37507
2113411.65446
2115818.46486
2114855.45835
2115308.22266
2113086.76339
2114532.62536
2114386.12647
2113192.26816
2112538.27293
2117196.86281
2118805.7167
2116398.53533
2114555.32272
2115232.69079
2117202.30169
2115066.86552
2116077.95744
2118979.40083
2114371.39421
2115050.7007
2117712.377
2115746.18814
2111419.25066
2116113.30971
2113847.35898
2115043.71628
2114540.37622
2112356.30436
2114094.95804
2114812.67284
2114105.90393
2115298.38039
2114971.01429
2115524.56696
2115620.64461
2116253.4868
2115467.19248
2115251.1961
2116869.11333
2113501.1434
2113206.63745
2113806.40363
2113268.82211
2116047.45148
2113548.44619
2116201.349
2113868.13772
2115448.23351
2113154.69771
2114066.52196
2115310.68018
2113112.2054
2115559.80849
2116114.07867
2114315.94096
2113843.55319
2116594.52007
2113984.51629
2119438.06978
2113769.53986
2115664.90946
2114985.07369
2115597.0387
2115634.21253
2114403.79073
2114162.70413
2115354.4767
2113135.65962
2116355.19679
2114284.542
2115688.68583
2117165.2322
2118884.48478
2115551.94658
2114574.43163
2113451.54195
2113219.64929
2114448.42736
2113207.22912
2114158.06645
2112279.13129
2113611.984
2113734.5477
2115308.60311
2114100.04212
2114929.27852
2114415.74039
2115131.11434
2113912.15339
2115129.32204
2114280.77056
2114126.95228
2115484.07322
2114541.02856
2114881.59015
2114716.31737
2114243.38309
2115147.39718
2115583.87436
2115144.20249
2114889.07754
2114121.0684
2115828.28527
2115529.02056
2115158.86823
2115094.58218
2114857.80156
2115770.06369
2115819.42865
2114466.30436
2116018.36165
2115313.39339
2117265.86399
2115566.809
2115287.46948
2115575.06519
2115594.48783
2115380.5237
2115366.52677
2115673.90017
2114080.9905
2114303.26389
2114084.66741
2114377.80243
2114990.71138
2114738.04888
2113183.06321
2112989.16524
2112967.68109
2112549.05427
2112718.9602
2114431.21994
2113410.74447
2113508.39064
2113632.94653
2114102.53923
2114914.68972
2115744.74173
2114645.27886
2113751.46105
2116007.59785
2115975.2384
2116266.38404
2114718.47195
2115130.68521
2112922.7207
2113301.48083
2116071.15959
2117616.68928
2114990.13529
2114510.31556
2115324.86822
2116644.77174
2112544.23703
2113028.48149
2113068.45863
2116037.25293
2115591.34323
2113909.41822
2116536.53873
2116365.03564
2112612.62895
2114206.32651
2113057.53416
2115125.92226
2116641.28331
2113664.70824
2113930.72694
2115112.69309
2116183.52172
2112747.70665
2113477.34499
2115190.56535
2116959.64686
2115545.25166
2115128.24002
2116056.00895
2116115.16974
2112370.45564
2113826.86314
2112753.64848
2119307.67346
2117504.81133
2117247.68098
2116516.57039
2115353.12321
2113585.82852
2116331.88066
2112911.77366
2116626.4968
2113778.1465
2114632.78535
2113226.15337
2114678.7991
2115391.76449
2114902.13291
2114323.15974
2114021.18248
2114343.39695
2113050.49787
2114602.21056
2113095.91206
2115526.58076
2113098.04022
2111570.9516
2113504.12453
2115121.64704
2117539.96709
2114698.37395
2116663.67256
2113263.31414
2113024.68575
2114217.60198
2115779.4033
2115282.52163
2114530.30037
2115588.30799
2116785.83192
2113951.72737
2113236.96551
2113031.90806
2119215.58971
2115965.77181
2115440.79467
2115277.90431
2114999.46756
2112933.00372
2115822.49043
2113558.40345
2113818.88851
2114086.30178
2114833.32729
2112953.82461
2112632.98412
2116252.24786
2115292.11428
2117325.47206
2115955.52472
2115462.31834
2115226.86874
2113813.69394
2114178.6196
2115505.48067
2114149.58239
2114097.98437
2113834.81732
2113655.40291
2114938.36335
2118542.76384
2116056.39187
2114877.25536
2115167.51902
2116792.58112
2114574.97004
2112425.9202
2115919.00873
2112993.20924
2116470.1245
2114738.86253
2115213.88175
2114446.31704
2112935.66051
2117371.65038
2119095.06908
2115619.67069
2115670.76334
2114675.44404
2114927.07276
2114543.87476
2114231.47951
2114884.24976
2115138.66356
2114368.67193
2115465.84708
2115043.88614
2115813.91778
2115379.60091
2113847.48612
2116021.17323
2117009.95553
2114840.36394
2114972.67662
2113364.70454
2113803.79526
2115974.19267
2112284.23304
2113081.05437
2114090.87503
2115566.31449
2115695.54074
2115012.67165
2112956.88989
2116206.21715
2116727.0438
2114484.78698
2113881.9556
2117041.33684
2113556.1409
2118175.95041
2112589.1804
2113357.1343
2113920.53703
2115715.53184
2113541.733
2114107.17785
2113560.06685
2114217.69278
2115363.18548
2115780.60983
2115499.08457
2114904.35305
2113587.49963
2114626.96109
2117560.37643
2119133.19349
2115539.83283
2115557.06
2114976.07491
2115078.49278
2114214.53188
2114842.52411
2114594.02932
2114451.66961
2115394.58679
2114770.12372
2115058.46219
2114715.31445
2113977.2454
2115442.42704
2115259.20235
2114670.11876
2115210.24124
2114965.06471
2114397.89605
2114073.15828
2115050.96313
2115706.49082
2114744.85424
2113637.6416
2113529.16832
2113710.30764
2113678.93191
2113089.55232
2113048.20657
2113562.19259
2113631.11325
2114596.57118
2115105.27108
2114403.4689
2114003.22392
2115931.65293
2115730.63974
2115411.47959
2115731.95098
2115255.34684
2113400.12209
2114483.59721
2114869.89669
2113502.83422
2114270.68048
2115030.39834
2114727.30779
2113190.11204
2113015.08703
2112792.81717
2112667.14049
2112829.3348
2115108.93063
2116956.0076
2114711.42551
2113880.24783
2112560.3337
2115194.07599
2115882.41054
2113126.90754
2113715.79256
2114307.92319
2115175.10459
2115348.09732
2114018.06579
2115869.86814
2116472.88575
2113681.98413
2114378.35239
2113506.16429
2114669.59519
2112670.21486
2114760.76342
2114386.94904
2114197.24745
2115852.30522
2115604.7385
2114501.41193
2115464.34916
2115980.51106
2115388.79286
2116145.40144
2117266.56175
2114723.24488
2116604.77664
2117220.13856
2112557.57516
2113485.48915
2115623.08606
2120684.53912
2118205.59061
2118154.53674
2115409.98221
2115296.70106
2113030.85986
2116574.22548
2113481.10716
2116679.41616
2115147.52135
2116332.21428
2115399.78941
2113225.50581
2115010.74231
2116382.37783
2112793.23438
2113843.28259
2115489.726
2113693.01482
2114636.27685
2114434.12292
2113695.47818
2116846.12474
2116801.50273
2112949.06272
2114240.31547
2112914.05273
2114317.72967
2115942.50281
2110883.32196
2114569.11582
2112635.11953
2117847.91074
2113707.04665
2116870.02566
2113097.12924
2112895.51873
2114416.54376
2115871.22603
2115693.93747
2114785.24915
2116603.57583
2116040.8545
2113834.68168
2112288.37733
2113728.1284
2114265.8721
2113968.42584
2113907.11742
2114961.05142
2115674.46489
2114415.33692
2113837.10942
2115773.11312
2115674.88871
2115361.51599
2114940.32988
2115627.19379
2113554.83092
2115729.02472
2116335.40919
2114044.98093
2112594.4518
2116014.92773
2115979.15798
2114362.57334
2116556.37162
2112537.78615
2112152.60693
2115077.83631
2114610.18164
2119152.41537
2116972.70278
2115270.88708
2114900.55663
2117695.98398
2115059.94771
2115293.35665
2117457.81519
2116454.8936
2114604.58873
2115957.17191
2114516.64889
2114637.62737
2113380.15302
2113131.42378
2114232.85858
2114341.69558
2114492.67333
2112788.52066
2114137.76342
2114149.65938
2114116.83084
2112338.94419
2115859.94292
2117430.27412
2114347.77381
2115974.59692
2114956.29201
2111240.23687
2114058.2281
2118187.99901
2116233.58945
2114826.39971
2115036.16998
2114809.19591
2115411.33807
2112768.98576
2113879.04271
2112445.73507
2114434.40043
2115766.17794
2115689.47067
2116839.23533
2115909.91437
2115370.75204
2119434.01237
2115494.39103
2114311.62164
2114090.81487
2115601.90698
2114794.56224
2115117.94753
2114668.95677
2114554.5104
2114793.16281
2114827.77204
2113567.23104
2114658.20374
2112848.66531
2114112.17294
2115225.77385
2117144.88514
2114659.76925
2116128.19526
2114346.32136
2114411.56184
2115303.83723
2114647.09597
2115239.83764
2116057.05478
2113250.9697
2113673.71666
2113925.79283
2113379.85161
2113461.20754
2115049.64532
2117285.02104
2114919.00928
2115298.31977
2113950.76679
2114123.14946
2116482.43926
2113741.67185
2114427.50774
2113911.08797
2117430.0288
2118888.42104
2116202.05122
2113607.87304
2114639.27239
2116616.93506
2114198.82664
2112610.45472
2111881.84075
2114699.4061
2116410.45078
2114827.59885
2118515.82857
2116468.93302
2115053.53586
2115428.622
2116828.92496
2114949.4165
2114338.60271
2112855.93103
2112671.37448
2114864.55346
2114561.83115
2115269.57475
2115495.75052
2113938.93484
2113311.23255
2112480.01447
2117960.77581
2118032.90356
2114504.59962
2115601.01051
2116007.43301
2114048.11859
2116481.95297
2114113.63821
2114063.6457
2115161.8597
2114615.35927
2115163.422
2111259.99184
2113487.27984
2113082.3639
2115921.6558
2113660.29561
2115407.8617
2113756.31849
2113531.63472
2113831.99038
2116202.80486
2115386.22549
2114092.98022
2116500.44795
2116313.60407
2114349.23842
2113631.5896
2113390.64457
2115032.55393
2114683.51686
2115670.3638
2113841.88224
2113713.51124
2115018.36513
2112623.96183
2112180.03959
2114598.60926
2115055.18425
2119123.76666
2115784.72621
2116480.67378
2114202.14836
2117832.16936
2115068.89605
2115428.83501
2118549.25616
2114067.72068
2115146.44165
2113711.95323
2113031.51769
2114327.19406
2114313.92355
2115380.47049
2118159.83674
2115123.86598
2117421.49562
2114162.44829
2115337.29949
2114536.87118
2112371.02086
2115456.39801
2114347.29594
2114986.98224
2111020.4766
2114626.0182
2114708.72903
2115596.97729
2114337.99046
2115240.39403
2114581.35178
2115096.36802
2113042.61759
2115106.15117
2114262.12163
2116033.03496
2112876.004
2111934.32876
2113018.26864
2113510.49573
2115962.89321
2112999.41914
2113665.8008
2114896.22765
2116317.66232
2114447.12146
2113871.63728
2119311.32276
2114082.27525
2119756.65207
2114873.3704
2115190.58263
2113362.42619
2115715.33751
2115820.14458
2112060.48678
2113658.82511
2114423.46
2115463.1807
2113055.69965
2113915.41575
2114460.674
2115179.90677
2115841.58968
2115140.09644
2114840.33341
2115494.15469
2115448.92798
2114412.81622
2114647.90306
2115943.44251
2116500.45907
2113972.17
2115692.84995
2117047.00563
2118410.23591
2114375.90178
2114871.13888
2114608.75954
2114694.7916
2113933.75595
2115139.83736
2115789.21648
2114926.33882
2114664.45865
2114180.75408
2115418.84425
2115464.35881
2114984.56315
2114982.12909
2114568.177
2113900.26367
2113855.85349
2113214.01752
2113800.10217
2113390.58224
2113823.83476
2113903.11105
2113676.03324
2115205.84143
2115110.8557
2114676.22203
2115056.36995
2114471.40811
2115301.17809
2115126.45175
2115305.95671
2114933.33125
2112337.347
2114161.99787
2114331.52109
2115721.33127
2115725.25645
2115470.26218
2115632.05976
2114249.48848
2114522.90905
2113633.36621
2112636.87759
2114868.37967
2117013.37907
2117218.94506
2115366.28985
2112520.75778
2114145.19961
2114142.06059
2114560.65088
2114450.04123
2112318.75273
2112374.43171
2112156.24004
2111503.21134
2111500.73708
2115565.95507
2117049.406
2113501.65849
2114766.37786
2113670.11607
2114421.83525
2116639.53816
2112986.47942
2113613.32713
2114613.81799
2116405.12199
2114667.08198
2115412.64842
2116324.80211
2115995.17892
2113001.78458
2113851.4341
2113308.18204
2121843.44703
2117456.68694
2118691.97246
2115202.3722
2118155.47859
2112980.7821
2116645.67198
2114384.36521
2118970.05749
2115319.62406
2114160.59457
2114682.78904
2115165.57125
2114146.20746
2116140.85243
2115098.01075
2114274.69675
2115791.85846
2115431.16347
2114294.8747
2115607.66017
2115502.20841
2114693.1429
2115362.05202
2115097.74137
2114475.53675
2114395.34644
2116082.30523
2114997.76616
2117182.78945
2114540.03107
2113442.04705
2114643.04672
2116744.76275
2113337.16894
2113274.29368
2114819.74411
2114610.44636
2115235.69161
2114843.42839
2114238.14749
2116502.61763
2116404.1072
2112871.15178
2114062.30393
2112918.52269
2113731.3643
2114631.69876
2116174.00762
2115358.18758
2115556.31234
2115220.21724
2114526.03967
2114138.90058
2114989.22384
2115415.01018
2115832.48072
2116505.57606
2114794.78203
2111431.30081
2113730.79965
2116154.23774
2113570.5159
2115674.61328
2115334.79053
2115218.4229
2115348.05087
2115023.43895
2116291.27834
2115862.98257
2113436.42057
2113929.63164
2113994.81744
2113095.61088
2112865.80814
2114665.64106
2113662.95485
2114321.52505
2114037.64238
2114535.09317
2115794.39561
2118255.64498
2115804.14263
2113641.56014
2115022.42871
2114530.30644
2115542.80009
2114751.92422
2113678.61385
2114606.97587
2114300.07496
2115388.40386
2118857.83604
2117076.89592
2115288.22609
2116628.24595
2116919.98683
2113960.39318
2113313.16194
2112854.29811
2114442.01739
2114752.01465
2114688.93431
2118682.29167
2115628.46394
2114898.40317
2114547.83097
2116937.20225
2114670.20388
2115442.81423
2112218.93334
2116462.88407
2110883.34139
2114670.25779
2114903.55158
2114797.55834
2115023.07178
2114315.59943
2115341.02632
2115069.13724
2115738.79454
2115916.19948
2113511.86869
2113375.75351
2114516.90268
2115310.40555
2115492.47836
2112440.56018
2113195.16198
2114620.23012
2116171.09766
2114623.53595
2112845.24077
2118359.7538
2114424.27702
2120059.05833
2113494.93892
2113563.79981
2113412.04583
2114171.35312
2115822.86323
2112764.3499
2114296.49177
2113127.1988
2113894.97608
2116015.99453
2114358.82113
2114711.50307
2116317.81521
2116149.8718
2115286.43212
2115591.81856
2115105.50459
2115769.05338
2114996.0986
2115550.24705
2114360.32082
2114107.13934
2114543.36333
2114383.57281
2116818.03395
2117886.09096
2113947.8421
2113714.12462
2115583.2035
2115655.56286
2114754.40839
2114254.05481
2114197.79565
2114530.12088
2114673.34016
2115036.97292
2115289.72911
2114696.29963
2114634.44653
2115372.67607
2114928.03519
2114720.56865
2115295.28348
2114742.31444
2114417.20473
2115538.14312
2115536.01093
2115265.01551
2115079.35079
2113596.19694
2114087.93944
2113550.96041
2114317.22146
2113555.01621
2113799.17287
2113348.80572
2113747.19984
2113979.85758
2115625.89112
2115225.30591
2114863.30497
2114627.42444
2114485.03316
2112885.16645
2112313.97207
2112231.66691
2112096.33557
2111581.16392
2114373.01797
2113443.98543
2114300.49229
2112906.51809
2114905.92536
2114366.83772
2115640.41255
2114185.66878
2116419.69154
2115167.0754
2114282.7922
2114025.57535
2118000.63534
2117300.42826
2113306.79082
2113500.97765
2114819.94128
2113522.10494
2113125.33507
2119705.37309
2117645.47643
2117879.66593
2114717.29474
2114955.64702
2113519.34377
2117129.51624
2113379.09758
2117821.01173
2114760.38922
2115820.79616
2113894.62209
2113498.67256
2113658.02431
2115252.69957
2115536.90117
2112464.99868
2113315.00868
2116036.16348
2113747.58777
2115568.53134
2114048.31566
2114000.23275
2116403.19395
2116912.39305
2112530.94948
2114227.13058
2113092.41223
2115473.21407
2116683.09916
2114011.99421
2113818.63678
2113923.27727
2114675.61937
2115957.42951
2112405.54261
2112942.77078
2115670.37919
2113997.42865
2115149.98209
2113983.07479
2113869.64587
2115350.05472
2115668.54069
2112305.09846
2114367.68246
2112711.75074
2114428.87648
2114023.13669
2114273.1667
2114594.75355
2115943.93444
2114517.25414
2114762.33907
2115229.81452
2115395.64243
2115266.41457
2115097.90362
2115814.8671
2113864.8253
2116260.27237
2116113.62993
2114209.08143
2113478.18778
2115469.4186
2114545.60195
2116657.6996
2114264.45843
2115459.43892
2114196.28061
2114443.84811
2116038.80359
2115130.08938
2115281.67433
2114879.38969
2117113.27411
2115249.6682
2115433.66974
2113856.56589
2114534.38723
2116738.07816
2114109.56101
2113233.28084
2113794.91845
2116269.28129
2115185.40509
2114620.50022
2115139.64595
2116034.61222
2116115.88827
2114382.35578
2115536.45586
2115708.66551
2113338.51638
2115829.49939
2113434.41963
2114017.21284
2114335.229
2118610.33456
2117740.50365
2114959.03105
2117213.20143
2116652.58541
2112933.42806
2112958.55033
2112728.57906
2113118.81247
2112053.99534
2114581.62837
2117342.69542
2113701.51429
2115924.83179
2115216.85175
2113571.51623
2113626.665
2114275.76706
2114085.53195
2114099.64869
2116714.99663
2120311.04849
2115481.8146
2115699.08251
2114869.85227
2112849.53006
2114902.5773
2114515.06741
2114586.92754
2114749.06839
2118712.13875
2117879.13329
2112356.9951
2116355.14825
2115177.27646
2114590.12586
2116074.98331
2113756.18636
2112562.1533
2114687.19742
2114463.2742
2117465.90405
2117324.39887
2113160.82713
2112356.73741
2114177.60455
2114390.10427
2115196.75081
2114395.32756
2115357.836
2113282.67687
2118990.31717
2118414.26761
2114679.46894
2117479.53923
2112803.0906
2113455.70109
2113726.90904
2114797.45626
2115996.54586
2114113.34869
2117271.08406
2117189.26258
2115427.63259
2112859.86305
2113300.26755
2115205.42836
2115264.66148
2114109.93902
2113388.68823
2114835.85342
2113902.91423
2116545.62335
2113399.62246
2119229.62807
2117650.69966
2114614.303
2114563.58349
2119345.54439
2115721.48433
2114865.88861
2112742.29918
2112530.4621
2116544.54096
2115444.77605
2117514.64868
2114091.53871
2115607.3839
2115540.26579
2115235.19577
2113353.91048
2114476.91977
2114056.48422
2119472.33347
2112544.96251
2117122.54678
2116141.85405
2116115.27553
2114236.17389
2116422.50973
2115129.87673
2111052.24871
2113902.9518
2117865.34514
2114408.88938
2115172.5021
2110494.70011
2112575.10109
2115007.25743
2114340.94441
2113961.49788
2116848.53116
2113913.7697
2116161.96526
2113683.17976
2118331.30882
2114740.55538
2115920.11643
2116186.05184
2114680.30739
2115017.78458
2118291.24649
2113720.43188
2115891.39259
2116268.30411
2114399.12193
2117868.84951
2110749.32787
2115080.66057
2112477.38423
2113235.26838
2115328.23818
2113384.41985
2113422.79539
2114690.64975
2114433.50758
2115929.55649
2114928.49556
2115482.55118
2114703.83326
2112457.07157
2115516.65865
2114639.54253
2115676.8142
2115183.71364
2116132.02504
2114368.25367
2115260.30038
2113755.58897
2114586.88356
2117395.06622
2116139.92214
2116073.13631
2114661.65164
2114459.70633
2113775.39911
2116370.47429
2115815.91198
2115206.59931
2114528.91283
2113425.6814
2112598.2241
2113108.88307
2117699.49006
2115404.28212
2115746.89032
2115492.62575
2116504.47585
2113646.43588
2116175.63195
2115544.24501
2113590.25006
2113851.64842
2114293.09239
2113410.77256
2112050.11468
2113178.09355
2115487.17528
2115052.97366
2115662.57323
2113375.27676
2117256.02614
2113079.68723
2116145.94267
2118638.49728
2115618.39441
2113283.99505
2114510.90372
2114082.36719
2116115.59994
2115149.36205
2112305.91187
2116388.92237
2114506.7929
2114409.64916
2110798.47452
2114541.57518
2115223.70321
2115396.68209
2111387.62038
2114466.72889
2111022.00438
2114739.22063
2117155.60173
2113983.91661
2114656.82419
2115422.39267
2114837.573
2114392.32259
2114580.82696
2115850.0169
2115443.88769
2117232.99447
2113493.95219
2115257.27773
2114241.80141
2114620.16671
2115227.83111
2113209.10976
2115081.6717
2115256.18751
2114247.93426
2112934.60602
2112927.844
2116270.17924
2114018.23368
2116426.9648
2113282.43742
2114335.54302
2115879.74832
2114969.61617
2118743.89909
2115678.01556
2115543.22987
2114075.03509
2115199.61709
2115295.1744
2112675.28515
2114458.61447
2113992.88672
2113718.31085
2114178.79504
2115019.41588
2115303.94619
2114299.66874
2115400.60952
2115537.46599
2113597.97634
2114031.00072
2115276.91059
2114675.69849
2115694.66131
2112794.20334
2113376.82977
2113518.37189
2114668.88829
2115676.64161
2111606.30843
2114847.4209
2115517.22848
2114181.55291
2116183.40478
2119242.38937
2115136.29066
2118718.28994
2114991.04606
2115978.97956
2114204.79062
2113421.58847
2112539.35699
2115035.04291
2111425.59673
2114205.19274
2113740.37441
2115911.04639
2112722.80851
2114604.33503
2115969.64582
2115259.58684
2115264.7548
2114914.4724
2115022.58463
2114762.07934
2113332.60055
2113548.06997
2113302.14108
2113371.02907
2113777.09881
2113540.34796
2113361.79496
2113926.61692
2113485.9757
2114620.63247
2114741.27115
2114968.62278
2113977.10733
2115994.2367
2115032.0441
2114583.30896
2114499.78998
2114167.07267
2115480.45898
2114607.92112
2114602.96169
2112898.8721
2114879.34175
2114785.44349
2114186.42368
2114005.21969
2115361.91932
2114465.4954
2115108.64932
2115199.51927
2115337.9638
2114415.06517
2113500.48523
2115113.6677
2116010.9582
2116122.21574
2113469.7562
2115924.32145
2113452.42998
2114679.74832
2114602.07794
2114403.22855
2113926.79187
2113363.56638
2115387.95935
2114859.20611
2112985.0057
2112540.09087
2111749.72899
2116408.3704
2114859.80979
2118231.11674
2110453.32976
2115154.28916
2115309.73606
2115383.68817
2116280.85865
2115212.13532
2116038.58738
2113926.56227
2114657.93126
2118627.09968
2117457.74768
2116531.91246
2113555.99493
2114561.61927
2113358.11428
2114855.13174
2116271.84114
2115448.77569
2118162.57019
2115403.07479
2117882.97793
2115503.06875
2113402.9655
2114250.01351
2117103.56738
2116244.09989
2112648.3499
2113521.37609
2115810.14143
2116155.47228
2113346.52036
2115071.06329
2116413.46769
2116360.01324
2114891.65459
2113445.18604
2115186.47524
2116082.51653
2112264.72588
2112281.5579
2115261.49689
2114948.38962
2116157.35951
2115043.32813
2118755.84945
2113087.96069
2116786.96212
2118655.72998
2115150.89207
2113217.66966
2114343.35007
2114471.2535
2113870.27368
2117027.88513
2115610.25667
2115835.12405
2114939.69979
2114757.45746
2110387.96407
2114670.2046
2115310.26418
2114755.87123
2115349.84226
2115402.48253
2115179.48526
2115006.65655
2115381.80561
2115165.72397
2114233.80539
2115585.77601
2114961.70344
2115186.22849
2115265.61793
2115514.859
2115860.68172
2114038.94845
2113841.31877
2115159.97074
2115977.39389
2113735.25179
2113900.23726
2115329.22383
2115974.67195
2117094.22077
2114903.88167
2115222.98818
2115102.20265
2116299.78395
2115862.19552
2112697.30226
2113390.30312
2113433.0251
2114531.48085
2112873.52406
2116074.45668
2117961.37963
2115044.77511
2114495.81882
2114497.15009
2116965.99965
2115909.0072
2115220.39443
2115741.28263
2114374.16964
2115711.05958
2115738.04449
2113174.14886
2113872.43034
2113392.22243
2114176.84908
2113078.75341
2120170.61252
2117297.21652
2118187.75264
2114675.67685
2117460.64217
2114491.09013
2114900.35131
2112579.30116
2117320.21528
2113962.77781
2112666.45454
2112320.02685
2117766.63107
2115160.15605
2112074.48147
2111539.4033
2114983.59689
2114585.94271
2114522.42218
2115245.3606
2109672.87945
2109917.32117
2115199.60157
2115631.25362
2115130.60771
2114349.19389
2115824.60098
2116209.16375
2114101.62465
2114655.4805
2116129.9396
2114892.03196
2114660.34396
2115379.62544
2115899.06838
2114038.17781
2113695.53631
2113412.43163
2114836.35815
2113041.22686
2113456.62946
2113681.81887
2114796.03723
2115472.51203
2114335.78658
2117624.51942
2114387.79888
2115073.02482
2118280.37138
2114780.33945
2115440.35345
2113113.32873
2113820.1313
2114456.96083
2113505.98575
2113445.14223
2114467.07549
2114257.46954
2114803.73435
2115303.76936
2114966.78876
2113750.30309
2115217.21026
2115155.6938
2115042.78472
2115414.86879
2115036.89114
2115265.43201
2116024.06117
2115007.11633
2113120.20822
2114765.25226
2112871.95454
2114312.47443
2114594.49174
2113435.19561
2114808.97807
2114028.74436
2116142.15942
2119220.07157
2115204.94014
2119310.91553
2114443.57056
2113422.24705
2113732.87919
2114689.31568
2116150.04077
2114337.80091
2118787.96053
2115149.61611
2115085.56278
2114133.56064
2115745.6297
2114440.43301
2115119.10878
2114861.39295
2115059.50081
2115035.37549
2113388.16741
2116718.92997
2116513.87935
2119115.20459
2109409.89587
2115611.03822
2111236.29079
2114498.74553
2115667.02285
2115412.11073
2115922.64691
2115268.35133
2115090.79655
2113438.64618
2113549.39372
2112915.64035
2113366.11332
2113258.01743
2113444.68046
2114168.52984
2113624.33984
2114216.65786
2114937.04079
2114818.62952
2114184.6991
2115843.42829
2115005.38718
2115338.64686
2115188.0724
2114471.95419
2112964.32704
2112445.10569
2112896.82209
2112522.49535
2114263.55803
2115662.16597
2116323.76087
2114016.90755
2113677.60545
2113927.47107
2115313.74125
2116196.7747
2115810.69884
2115077.11831
2115096.31129
2115317.16264
2114282.42255
2115613.20652
2116308.98373
2113173.39661
2113504.69724
2113386.54403
2114399.96176
2112833.11418
2114707.93075
2116517.55204
2114623.25261
2116972.67448
2115186.94551
2115485.55309
2116643.60351
2115244.18219
2114100.28298
2113956.82095
2116069.51024
2116318.01749
2115528.81241
2114398.42806
2115443.73907
2115219.98042
2115149.29488
2114480.26906
2115942.66535
2113340.36931
2114288.65751
2116892.7768
2116543.31324
2114395.39808
2113055.49203
2113886.9125
2114199.13834
2114900.41038
2115526.84279
2115234.60539
2114487.57931
2115386.30027
2114935.79417
2117585.42194
2114284.792
2116164.17272
2117385.60213
2111696.52684
2115962.65701
2113142.2993
2113782.58211
2114992.12515
2114506.81826
2116565.47952
2116384.61079
2115370.85089
2115278.37733
2115251.58531
2110262.94807
2115831.1031
2114337.6991
2113695.06619
2115118.74932
2115515.02077
2113392.48282
2114264.23607
2116229.43752
2115124.21579
2114802.41499
2113640.41772
2115518.86598
2116298.32618
2112851.18163
2112319.66906
2115456.29162
2114882.12386
2115653.48545
2115572.35505
2115097.71509
2115899.24949
2115539.93236
2115851.96585
2115269.30647
2115694.98953
2116068.20978
2115154.86479
2114971.14952
2115131.70802
2115390.58675
2115548.15312
2114235.27497
2114977.2913
2113764.22579
2115237.16013
2114093.52814
2114948.71536
2114235.96376
2114676.87867
2114789.06397
2114052.5065
2115759.25322
2114770.84709
2113665.84961
2114082.01763
2115223.7327
2113741.94392
2118422.74067
2116949.92395
2116900.48041
2114932.7628
2113786.19357
2114818.83401
2114843.07786
2113018.76005
2116892.67756
2114241.32301
2112836.00232
2112599.10247
2116621.33662
2113476.03634
2112624.22193
2112269.15091
2115374.36866
2116250.98075
2113932.02685
2113894.74142
2115309.30417
2116019.13754
2116196.38265
2114295.48027
2115257.24102
2115234.18965
2114542.94057
2117083.65178
2116215.32917
2113156.10882
2113286.74531
2113278.24991
2114620.10615
2113478.18719
2111882.80771
2111616.1119
2115202.81988
2114880.00859
2115302.46552
2110866.61873
2112393.37067
2115920.16797
2115271.59662
2113724.03242
2117501.52333
2114469.3303
2116124.88101
2115049.67634
2114602.72032
2117664.96311
2113696.01154
2113722.02583
2117851.5781
2115044.87893
2116176.59556
2114492.06411
2115653.74035
2114977.919
2115519.1825
2114874.41644
2112204.85236
2111598.7441
2114343.91464
2116660.33906
2114969.67109
2115054.98787
2115522.20171
2113221.18152
2118703.22924
2116976.93568
2116822.74178
2111379.00033
2115408.2217
2113829.28459
2116203.17119
2116327.76274
2113650.48945
2115886.47515
2118433.00982
2116549.44691
2117195.63346
2112369.57257
2114700.55107
2113810.94329
2114855.88128
2115642.15193
2115272.89305
2116311.419
2113477.33268
2115381.06805
2114422.48447
2114909.18845
2112958.96603
2116750.8407
2115274.66434
2115537.02086
2115373.04481
2115581.96871
2113347.03043
2113946.1303
2116487.94946
2112843.29846
2115411.87409
2113044.63565
2113939.36363
2113631.92618
2114548.27317
2113741.67578
2112692.97915
2116012.761
2113553.7617
2114949.43799
2116170.14702
2113838.35473
2116416.16703
2113353.75374
2116108.84449
2119281.26207
2114470.34136
2113441.01941
2114300.40579
2114469.87232
2115185.07019
2115549.31602
2116558.14031
2115458.71404
2115138.43036
2110672.65415
2114966.18311
2115311.26846
2111785.34955
2113092.33828
2114393.42799
2115056.48289
2114079.28946
2117282.42583
2113648.51891
2116276.29816
2115416.65236
2119315.98897
2114263.50735
2116222.35052
2114699.06929
2115521.0204
2118549.50246
2115717.34734
2114023.34567
2115738.57354
2112984.02386
2113890.79698
2115923.78177
2112831.25161
2114777.81526
2116121.45562
2114310.06697
2118930.26748
2111534.57016
2114676.27653
2113496.51441
2113997.07435
2115411.30587
2115366.2282
2114683.88177
2114719.0803
2112449.56466
2115261.52867
2114843.76724
2113366.30441
2112609.17121
2112610.25005
2117088.05526
2115350.16452
2115561.89725
2115245.94375
2115297.78456
2114617.22234
2114145.72693
2116412.74799
2114782.00358
2114249.52036
2113943.65888
2114720.2797
2115652.8044
2115194.14833
2116103.53941
2113212.36473
2114099.04422
2116810.18791
2116714.90054
2115559.70179
2113121.59227
2112670.93422
2114626.09912
2116515.12279
2115686.538
2114330.45751
2115596.18172
2115565.32555
2117249.54772
2113531.18143
2116268.78721
2117723.06931
2112124.25128
2116102.98369
2113050.89159
2113970.5457
2113845.35749
2116925.38118
2116098.74298
2115603.25319
2114844.497
2114907.0908
2111064.80011
2115207.7655
2113957.49537
2112597.90007
2113321.26689
2116002.77509
2113255.06276
2112957.9544
2112357.31319
2115298.25979
2114252.11939
2114672.61437
2114910.49443
2114865.79903
2114970.84944
2115814.38477
2112325.2124
2110072.24337