#           x         0.001         0.001         0.001
#           y         0.001         0.001         0.001
#           z           0.6          -0.6            -1
#        Time
    0.0635395       353.775       361.442       300.114
     0.172363       407.747       424.599       302.288
     0.320955       436.416       460.286       312.591
     0.504374       452.901       482.671       330.032
     0.718605       463.144        497.79       349.249
     0.960204         469.9       508.562       367.001
      1.22073       474.479       516.481       382.009
      1.49247       477.651       522.426       394.233
      1.77336       479.909       526.994       404.163
      2.06156       481.548       530.568        412.25
      2.35558       482.757       533.407        418.87
      2.65416       483.658       535.689       424.328
      2.95625       484.333       537.548       428.868
      3.26096       484.836       539.071        432.68
      3.56778       485.214       540.338       435.914
      3.87619         485.5       541.422       438.703
      4.18577       485.715       542.356       441.136
      4.49622       485.875       543.171       443.282
      4.80734       485.993       543.887       445.192
      5.11889       486.079       544.522       446.905
      5.43079       486.142       545.088       448.448
      5.74283       486.188       545.594       449.841
      6.05514       486.221       546.047       451.102
      6.36746       486.245       546.453       452.241
      6.67977       486.263       546.816       453.267
      6.99231       486.276       547.141       454.191
      7.30499       486.286       547.432       455.024
      7.61768       486.294       547.691       455.772
      7.93036       486.299       547.922       456.443
      8.24305       486.303       548.126       457.041
      8.55573       486.306       548.308       457.573
      8.86842       486.308       548.467       458.045
       9.1811        486.31       548.608       458.461
      9.49379       486.312       548.731       458.828
      9.80647       486.313       548.838       459.149
      10.1192       486.315       548.932        459.43
      10.4318       486.316       549.013       459.675
      10.7445       486.317       549.083       459.887
      11.0572       486.317       549.144       460.072
      11.3699       486.318       549.197       460.232
      11.6826       486.318       549.242       460.369
      11.9953       486.319       549.281       460.488
       12.308       486.319       549.314        460.59
      12.6206       486.319       549.343       460.677
      12.9333        486.32       549.367       460.752
       13.246        486.32       549.388       460.816
      13.5587        486.32       549.405       460.871
      13.8714        486.32        549.42       460.917
      14.1841        486.32       549.433       460.957
      14.4967        486.32       549.444        460.99
      14.8094        486.32       549.453       461.018
      15.1221        486.32       549.461       461.043
      15.4348        486.32       549.467       461.063
      15.7475        486.32       549.473        461.08
      16.0602        486.32       549.478       461.095
      16.3729        486.32       549.482       461.107
      16.6855        486.32       549.485       461.117
      16.9982        486.32       549.488       461.126
      17.3109        486.32        549.49       461.134
      17.6236        486.32       549.492        461.14
      17.9363        486.32       549.494       461.145
       18.249        486.32       549.495       461.149
      18.5616        486.32       549.496       461.153
      18.8743        486.32       549.497       461.156
       19.187        486.32       549.498       461.159
      19.4997        486.32       549.499       461.161
      19.8124        486.32       549.499       461.163
      20.1251        486.32         549.5       461.164
      20.4378        486.32         549.5       461.165
      20.7506        486.32         549.5       461.166
      21.0633        486.32       549.501       461.167
      21.3761        486.32       549.501       461.168
      21.6888        486.32       549.501       461.169
      22.0016        486.32       549.501       461.169
      22.3143        486.32       549.501       461.169
      22.6271        486.32       549.501        461.17
      22.9398        486.32       549.502        461.17
      23.2525        486.32       549.502        461.17
      23.5653        486.32       549.502        461.17
       23.878        486.32       549.502        461.17
      24.1908        486.32       549.502       461.171
      24.5035        486.32       549.502       461.171
      24.8163        486.32       549.502       461.171
       25.129        486.32       549.502       461.171
      25.4418        486.32       549.502       461.171
      25.7545        486.32       549.502       461.171
      26.0672        486.32       549.502       461.171
        26.38        486.32       549.502       461.171
      26.6927        486.32       549.502       461.171
      27.0055        486.32       549.502       461.171
      27.3182        486.32       549.502       461.171
       27.631        486.32       549.502       461.171
      27.9437        486.32       549.502       461.172
      28.2565        486.32       549.502       461.172
      28.5692        486.32       549.502       461.172
      28.8819        486.32       549.502       461.172
      29.1947        486.32       549.502       461.172
      29.5074        486.32       549.502       461.172
      29.8202        486.32       549.502       461.172
      30.1329        486.32       549.502       461.172
      30.4457        486.32       549.502       461.172
      30.7584        486.32       549.502       461.172
      31.0711        486.32       549.502       461.172
      31.3839        486.32       549.502       461.172
      31.6966        486.32       549.502       461.172
      32.0094        486.32       549.502       461.172
      32.3221        486.32       549.502       461.172
      32.6349        486.32       549.502       461.172
      32.9476        486.32       549.502       461.172
      33.2604        486.32       549.502       461.172
      33.5731        486.32       549.502       461.172
      33.8858        486.32       549.502       461.172
      34.1986        486.32       549.502       461.172
      34.5113        486.32       549.502       461.172
      34.8241        486.32       549.502       461.172
      35.1368        486.32       549.502       461.172
      35.4496        486.32       549.502       461.172
      35.7623        486.32       549.502       461.172
      36.0751        486.32       549.502       461.172
      36.3878        486.32       549.502       461.172
      36.7005        486.32       549.502       461.172
      37.0133        486.32       549.502       461.172
       37.326        486.32       549.502       461.172
      37.6388        486.32       549.502       461.172
      37.9515        486.32       549.502       461.172
      38.2643        486.32       549.502       461.172
       38.577        486.32       549.502       461.172
      38.8898        486.32       549.502       461.172
      39.2025        486.32       549.502       461.172
      39.5152        486.32       549.502       461.172
       39.828        486.32       549.502       461.172
