/*--------------------------------*- C++ -*----------------------------------*\
| =========                 |                                                 |
| \\      /  F ield         | OpenFOAM: The Open Source CFD Toolbox           |
|  \\    /   O peration     | Version:  2.3.1                                 |
|   \\  /    A nd           | Web:      www.OpenFOAM.org                      |
|    \\/     M anipulation  |                                                 |
\*---------------------------------------------------------------------------*/
FoamFile
{
    version     2.0;
    format      ascii;
    class       surfaceScalarField;
    location    "40/fluid";
    object      phi;
}
// * * * * * * * * * * * * * * * * * * * * * * * * * * * * * * * * * * * * * //

dimensions      [1 0 -1 0 0 0 0];

internalField   nonuniform List<scalar> 
75547
(
-0.000878072
0.00114423
0.000803126
-0.0225327
0.00495307
-0.113073
-0.000925196
-0.000989145
-0.00125638
-0.00136816
-0.000610758
-0.000580522
-0.000673234
-0.000875513
0.00144586
-0.000872872
0.000805132
0.00111928
-0.0225113
0.00375525
0.00372608
-0.10908
-0.000921087
-0.000750238
-0.00112675
-0.00133093
-0.000923619
-0.000742438
-0.00113359
-0.00133731
0.00434867
-0.10668
0.00216699
0.00492981
0.00141515
-0.113167
-0.000582704
-0.00057168
-0.000679624
-0.000875606
-0.000876227
-0.000941071
-0.00122444
-0.0013052
0.00438753
0.00214025
-0.106836
0.00251884
-0.101301
0.00254707
-0.000335421
0.00119226
0.000182987
-0.017644
0.00581084
-0.10859
-0.00121832
-0.00137942
-0.0014888
-0.00156015
4.99147e-05
0.00489059
-0.103772
1.85761e-05
-0.0973035
0.00279197
9.29945e-06
0.0220238
-0.00122243
0.00109274
0.00157541
-0.0216819
0.00732114
-0.0278214
-0.00184744
-0.00176934
-0.00202403
-0.00210304
-0.000991538
-0.000943731
-0.00110322
-0.0013126
-0.0278232
-0.0273647
-0.0272152
0.001925
0.0220086
-0.00122244
0.00157698
0.00109906
-0.0216745
0.00521227
0.00525837
-0.0262869
-0.00155062
-0.00138461
-0.00176004
-0.00200398
-0.00155509
-0.00137954
-0.00177109
-0.00201359
-0.0267177
-0.0267585
-0.0263694
0.00627761
-0.0263236
-0.0260367
-0.0256392
-0.0251942
0.00276963
0.00731804
0.00221911
-0.0279297
-0.00100946
-0.000950209
-0.00113594
-0.00132377
-0.00183188
-0.00172824
-0.00202911
-0.0021038
-0.0274327
-0.027909
-0.0273206
0.00624955
0.00280421
-0.0263527
-0.0256603
-0.0260901
-0.02521
0.00361471
-0.0245785
-0.0240519
-0.0240564
-0.0233748
0.00367284
0.0171503
-0.000601321
0.00183941
0.000254311
-0.0167528
0.00911953
-0.0272201
-0.0018399
-0.00190335
-0.00220261
-0.0022299
-0.0267978
-0.0269274
-0.0263863
1.73925e-05
0.00730315
-0.0254783
-0.0245251
-0.0250915
-0.0240623
5.99858e-06
-0.0231716
-0.0224902
-0.0227263
-0.0220136
0.00400626
9.74797e-06
0.0214244
-0.00123214
0.00105217
0.00167866
-0.0211234
-0.00183131
-0.000958132
0.000732913
0.00188253
-0.0276474
0.0214245
-0.00123295
0.00168066
0.00106537
-0.0211342
-0.00159134
-0.00159932
0.00147981
0.00148223
-0.0260583
-0.00181655
-0.00123391
0.000982478
0.00171439
-0.02597
-0.000992318
-0.00182457
0.00187268
0.000793348
-0.0277788
-0.00123656
-0.0018089
0.00171437
0.00099691
-0.0260185
-0.00143598
-0.00143386
0.00116882
0.00116828
-0.0240458
0.0164546
-0.000603559
0.00199899
0.000253727
-0.0161602
-0.00202789
-0.000537352
0.00203402
0.000295046
-0.026984
-0.000638933
-0.0019084
0.00189178
0.000345549
-0.0251683
-0.000762067
-0.00161191
0.00133025
0.000428882
-0.0225567
0.0208896
-0.00148815
0.00132002
0.00205974
-0.0207519
-0.00218858
-0.00126072
0.0274743
0.000970385
0.00222577
-0.0272212
0.0208941
-0.00148394
0.00203427
0.00132235
-0.0207312
-0.00197023
-0.00197073
0.0257309
0.00181715
0.00181901
-0.0254261
0.0255455
-0.00215828
-0.00154759
0.0012035
0.00201531
-0.0250585
-0.00126445
-0.00220857
0.0275772
0.00223111
0.000972014
-0.0273073
0.0256257
-0.00154963
-0.00216794
0.00201617
0.00121779
-0.0251421
0.0234104
-0.00170741
-0.00170991
0.00132481
0.00132225
-0.0226402
0.0158841
-0.000717558
0.00257295
0.000286441
-0.015811
-0.00253966
0.0266892
-0.000649835
0.00247663
0.000337052
-0.0263134
0.0247189
-0.000810156
-0.00229397
0.0020953
0.000403377
-0.0241135
0.0218399
-0.000832107
-0.00182215
0.00146787
0.00045641
-0.0211099
0.0205799
-0.00159979
0.00141613
0.00215971
-0.0203953
-0.00238856
-0.00135604
0.026944
0.00104351
0.00229957
-0.0265425
0.0205468
-0.00158713
0.00222335
0.00138827
-0.0204101
-0.00209281
-0.00210585
0.0251187
0.00193691
0.00194978
-0.0248068
0.0246
-0.00228534
-0.00167482
0.00134409
0.00219156
-0.0241755
-0.00132506
-0.00247103
0.0269586
0.00238242
0.00101948
-0.0265644
0.0246786
-0.0016791
-0.00230152
0.00219567
0.0013623
-0.0242559
0.0219051
-0.00194034
-0.00194229
0.00156558
0.00157266
-0.0211608
0.0157518
-0.000824767
0.00279786
0.000327147
-0.0156773
-0.00279268
0.0259601
-0.000671635
0.00273368
0.000360886
-0.0255904
0.0233637
-0.000963896
-0.00260815
0.0024194
0.000506087
-0.0227172
0.0202128
-0.00109634
-0.0021418
0.00173776
0.000550021
-0.0192625
0.0202785
-0.00151214
0.00130622
0.00214329
-0.0201398
-0.0024708
-0.00130423
0.0261968
0.00103344
0.0024029
-0.0258581
0.020296
-0.00151603
0.00214237
0.0013168
-0.0201609
-0.00202169
-0.0020586
0.0244231
0.00189599
0.00187172
-0.0241106
0.0237676
-0.0022674
-0.00166762
0.00135734
0.00217839
-0.0233683
-0.00132598
-0.0025225
0.0262537
0.0024127
0.00104254
-0.0258605
0.0238101
-0.00163698
-0.00233814
0.00221396
0.00132401
-0.0233729
0.0204345
-0.00202803
-0.00202033
0.00169251
0.00171062
-0.0197893
0.0156432
-0.000841676
0.00285275
0.000323431
-0.0156622
-0.0028177
0.0251847
-0.00071424
0.00278088
0.000328432
-0.0247621
0.0220959
-0.000948087
-0.00272769
0.00260534
0.000492165
-0.0215176
0.0182929
-0.00125701
-0.00231216
0.00195341
0.000611761
-0.0172889
0.02005
-0.00119686
0.00106607
0.00177663
-0.0200089
-0.00204709
-0.00107554
0.0255958
0.000883759
0.00208637
-0.0254433
0.019997
-0.00117656
0.0017383
0.00107208
-0.0199463
-0.00168136
-0.0016791
0.0239189
0.00163802
0.00160783
-0.0238043
0.0229425
-0.00215068
-0.00152288
0.00128229
0.00213961
-0.0226909
-0.00109314
-0.00206627
0.0255591
0.0021068
0.000888749
-0.0253952
0.0229952
-0.00152764
-0.00214318
0.00214007
0.00128142
-0.0227459
0.01924
-0.00204569
-0.00204395
0.00181753
0.00179057
-0.0187584
0.0156302
-0.000627846
0.00219086
0.000260412
-0.0155783
-0.00225101
0.0244786
-0.000622369
0.00238957
0.000354102
-0.0243489
0.0210584
-0.000878301
-0.00253368
0.00259964
0.0004605
-0.0207066
0.0162582
-0.00133103
-0.00253025
0.00221071
0.00068745
-0.0152951
0.0199401
-0.000639559
0.000584646
0.000936549
-0.0199191
-0.00130591
-0.000674334
0.0253735
0.000576019
0.00138529
-0.0253545
0.0199698
-0.000634035
0.000940499
0.000562339
-0.0199345
-0.000984715
-0.000991188
0.0237988
0.00106009
0.00105789
-0.0239408
0.0226435
-0.00156868
-0.00103686
0.0010106
0.00180427
-0.0228528
-0.000660849
-0.00123517
0.0254098
0.00132788
0.000522773
-0.0253644
0.0227028
-0.00104701
-0.00153431
0.00178761
0.00103389
-0.022943
0.0184255
-0.00186903
-0.00191912
0.00182845
0.00180524
-0.0182711
0.0155305
-0.000352316
0.00125692
0.000146127
-0.0155312
-0.00141303
0.024336
-0.000424443
0.00167551
0.000238533
-0.0244126
0.0205149
-0.000812706
-0.00208958
0.00246574
0.000432241
-0.0205106
0.0143831
-0.00143075
-0.00265118
0.00248988
0.000745615
-0.0135367
0.0200428
0.000427121
-0.000312818
-0.000452719
-0.0203198
0.000448551
0.000197587
0.0256315
-0.000102281
-4.07336e-05
-0.0261346
0.0200507
0.00043178
-0.000446008
-0.000330019
-0.0203215
0.000166562
0.000160257
0.0243446
7.70082e-05
8.1295e-05
-0.0248297
0.0233019
-0.000384895
-0.000329962
0.000421446
0.000868335
-0.0238768
0.000218723
0.000439985
0.0256379
-1.65534e-05
-0.000125419
-0.0261547
0.0234014
-0.000323231
-0.000402736
0.000839599
0.00040439
-0.0239194
0.0183716
-0.00135582
-0.00131536
0.00155935
0.00156038
-0.0188201
0.0156155
0.000200886
-0.000548211
-7.97906e-05
-0.015793
0.000184403
0.024756
2.26791e-05
0.000303703
1.50952e-05
-0.0252818
0.0208103
-0.000465709
-0.000936842
0.00167223
0.000350641
-0.0214306
0.0128598
-0.00139532
-0.00230472
0.000812885
0.000660799
0.000628672
0.000680339
0.000638176
-0.00283354
-0.00343368
-0.0030475
-0.0032659
0.0207305
0.00153824
-0.00127445
-0.0020246
-0.0211453
0.00225535
0.001164
0.0268808
-0.000883743
-0.00187971
-0.0275367
0.020736
0.00153735
-0.00202546
-0.00127138
-0.0211509
0.00168496
0.00170768
0.0254696
-0.00135492
-0.00135183
-0.0261555
0.0246186
0.00148925
0.000992448
-0.00067889
-0.00100218
-0.0254192
0.00117195
0.00226164
0.0268934
-0.00188213
-0.000860287
-0.0275846
0.024655
0.00101089
0.00146935
-0.0009924
-0.000696252
-0.0254466
0.0196985
0.000416562
0.000385723
2.05143e-05
6.9276e-06
-0.0210977
6.96703e-05
5.9431e-05
0.000132459
7.94969e-05
7.57417e-05
0.000152695
0.0160691
0.000794658
-0.00251921
-0.000335644
-0.0163593
0.00222588
0.0258847
0.00052316
-0.00185538
-0.000341433
-0.026437
0.0222133
0.000342236
0.00129827
-0.000400998
-0.000185096
-0.0232678
-0.000159713
6.48036e-05
-0.00364406
-6.76482e-05
0.000297934
0.00350868
-0.0136487
0.000566806
0.00115013
0.000653778
0.00153009
-0.0131612
0.00155667
-0.0109054
0.000349265
0.000341781
-0.0240385
-0.032003
0.000196494
0.001744
-0.0105568
0.000463688
0.00025967
-0.0234162
-0.0316705
0.000303008
0.0011007
-0.0108652
0.0010973
-0.0108636
-0.0257189
0.000869753
0.000865618
0.00125942
0.00102205
-0.0104965
0.00125996
0.00102111
-0.0104943
0.00107408
0.00107397
-0.0253476
0.000840359
-0.033042
0.000803253
-0.0262093
-0.0276804
0.000925249
0.00114455
0.00119863
-0.0324585
0.000981402
-0.0260988
-0.0277068
-0.0135983
0.00114492
0.000525382
0.00152717
0.000663946
-0.0131174
0.000795313
-0.0262106
0.000835888
-0.0330123
-0.0276645
0.00114723
0.000927681
0.000981939
-0.0261049
0.00120343
-0.0324405
-0.027692
0.000441721
-0.02394
0.00151069
-0.0108835
-0.0320136
0.0001921
0.000294928
-0.0233112
0.00170552
0.000456287
-0.0104864
0.000287811
-0.0316061
0.000156304
-0.0271896
0.00131254
-0.0211256
7.40633e-05
-0.0275089
3.86854e-05
0.00139946
0.000193268
0.000160434
-0.0271516
0.00145947
-0.0205959
1.90216e-05
-0.0274704
2.12418e-05
-0.0128388
0.000838291
0.00197367
0.000851366
0.00204548
-0.0126333
0.00215258
-0.0102659
0.000574291
0.000361972
-0.0230048
-0.0313235
0.000398232
0.00222283
-0.0100498
0.000595021
0.000352611
-0.0227693
-0.0312416
0.00039053
0.00155219
-0.0102609
0.00155317
-0.0102593
-0.0250435
0.00140089
0.00140042
0.00160064
0.00122758
-0.0100783
0.00160196
0.00122768
-0.010077
0.00147663
0.00147927
-0.0247968
0.00161825
-0.0320019
0.00124874
-0.0259219
-0.0271681
0.00107586
0.0016787
0.00182873
-0.0318125
0.00134411
-0.0258707
-0.0273119
-0.0128183
0.00197023
0.000866674
0.0020394
0.000890746
-0.0126395
0.00124851
-0.0259311
0.00162023
-0.0320009
-0.0271531
0.00168054
0.00108321
0.00134476
-0.0258872
0.00182846
-0.0318427
-0.0273172
0.000438672
-0.0229313
0.00213786
-0.0102084
-0.0311875
0.000429696
0.000471686
-0.0227765
0.00220047
0.000624368
-0.0100049
0.0004913
-0.0311105
0.000227222
-0.0269496
0.00186689
-0.0201289
6.39011e-06
-0.0272918
1.21939e-05
0.00195159
0.000266831
0.000267886
-0.0269772
0.00198686
-0.019758
1.44438e-06
-0.0272735
6.54893e-06
-0.0124328
0.000855703
0.00201276
0.000946301
0.00211727
-0.0121877
0.00227531
-0.00981977
0.000596459
0.000424379
-0.0224612
-0.0309634
0.00198203
0.000439471
0.0024157
-0.00950058
0.000577392
0.000486193
-0.0220651
0.00193612
-0.0305379
0.00202271
0.000453665
0.00164066
-0.00989579
0.00164238
-0.00989523
-0.0245112
0.00149817
0.00149928
0.0017871
0.0013634
-0.00978323
0.00178335
0.00136229
-0.00977598
0.00166357
0.00166361
-0.024268
0.00178005
-0.0314858
0.00137937
-0.0256646
-0.0271295
0.00118782
0.00178926
0.00117713
0.00187004
0.00190991
-0.0311677
0.00106644
0.00149137
-0.0254002
0.00177791
-0.0268172
0.00122224
0.00186669
-0.0124557
0.00199987
0.000896664
0.00213119
0.000950026
-0.0122194
0.0013796
-0.0256861
0.00177867
-0.0315485
-0.0271495
0.00179297
0.00119757
0.00186601
0.00117776
0.00149025
-0.025431
0.00178425
0.00190186
-0.0312405
0.00109907
-0.0268673
0.00186688
0.00124311
0.000490204
-0.0224818
0.00225783
-0.00977101
-0.0308065
0.000469834
0.00197424
0.000464647
-0.022077
0.00195464
0.00244135
0.000565376
-0.00947166
0.000421503
-0.0303671
0.00204503
0.000265947
-0.0268022
0.00206616
-0.019406
-1.01961e-06
-0.0270393
0.00209354
4.30301e-06
0.00214107
0.000228895
0.000248966
-0.0266496
0.00216098
0.00221256
-0.0190896
-3.80535e-06
-0.0268136
0.00223389
1.94002e-06
-0.0120664
0.0010704
0.00231324
0.0011183
0.00236406
-0.0118747
0.00257421
-0.00925307
0.000654663
0.00056585
-0.0217741
-0.0301365
0.00224374
0.00049493
0.00281185
-0.0091679
0.000763424
0.000609496
-0.0214307
0.00224441
-0.0296631
0.00239369
0.000554216
0.00192882
-0.00974635
0.00191219
-0.00971719
-0.0241091
0.00184144
0.00184073
0.00198492
0.00156488
-0.00968942
0.0019924
0.00154805
-0.00965606
0.00191259
0.00191426
-0.0239587
0.00212487
-0.03092
0.00168357
-0.0251529
-0.0265052
0.00141691
0.00207957
0.00141108
0.0021
0.00215279
-0.030626
0.00132835
0.00175101
-0.0249428
0.0020515
-0.0262394
0.00148021
0.00215777
-0.0120517
0.00229702
0.00105349
0.00242824
0.00107648
-0.0118752
0.001677
-0.0252037
0.00210428
-0.0309898
-0.02659
0.00207768
0.00142626
0.00210759
0.00137622
0.0017434
-0.0249741
0.00204877
0.00217063
-0.0306363
0.00128031
-0.0262936
0.00215265
0.00146496
0.000535249
-0.0217818
0.0027432
-0.00942072
-0.0300139
0.000542255
0.00238308
0.000541549
-0.0215192
0.00236041
0.00288471
0.000786898
-0.00941406
0.000571211
-0.0297105
0.00255158
0.000289191
-0.0263632
0.00258327
-0.0189286
-2.16254e-05
-0.0265097
0.00257505
-6.43477e-06
0.00272833
0.000313036
0.000301916
-0.0260859
0.00272029
0.00274151
-0.0188063
-1.50913e-05
-0.0262229
0.00276183
-5.22533e-06
-0.0117489
0.00113116
0.00249549
0.00111728
0.00254889
-0.0116642
0.0029269
-0.00914974
0.000814011
0.000614857
-0.0211759
-0.0292795
0.00254195
0.000616271
0.00296044
-0.00915121
0.00083159
0.000613529
-0.0209945
0.002459
-0.0290215
0.00263995
0.000675936
0.00204306
-0.00964965
0.00208145
-0.00964818
-0.0237983
0.00198386
0.0019803
0.00209753
0.00159198
-0.009668
0.00210595
0.00158742
-0.00967408
0.00201665
0.00201181
-0.0236233
0.00218866
-0.0302591
0.00179557
-0.0246876
-0.0259606
0.00151896
0.00218651
0.00136976
0.00225787
0.00229567
-0.0299741
0.00133794
0.00179188
-0.0243328
0.0021278
-0.0256002
0.00151771
0.00220942
-0.0117622
0.0025348
0.00111353
0.00258107
0.00111055
-0.0116885
0.0017979
-0.0246742
0.00225076
-0.030289
-0.0259424
0.0021904
0.0015071
0.00228826
0.0013392
0.00177408
-0.0242917
0.00214348
0.0023464
-0.0300266
0.00131144
-0.0255305
0.00222771
0.00148086
0.00059648
-0.0213318
0.0029601
-0.00941615
-0.0294203
0.000628501
0.00263789
0.000626814
-0.0212329
0.00253775
0.00300779
0.000846606
-0.00946071
0.000683076
-0.0291783
0.00270954
0.000323017
-0.0257752
0.00279221
-0.0186698
-6.27856e-06
-0.0259288
0.00282176
-6.34872e-07
0.00286331
0.000331179
0.000332572
-0.0254089
0.00284749
0.00284398
-0.018617
3.47612e-05
-0.0256053
0.00285579
-2.72601e-06
-0.0116318
0.00109765
0.00251315
0.00102771
0.00238465
-0.011647
0.00292007
-0.00917887
0.000820567
0.000612707
-0.0208919
-0.0288188
0.00264494
0.000685144
0.00277862
-0.00925721
0.00078164
0.000586128
-0.0208618
0.00235876
-0.0286673
0.00254017
0.000673089
0.00201207
-0.00964671
0.00199873
-0.00964807
-0.0234261
0.00191161
0.00190201
0.00179553
0.00134911
-0.00954004
0.00178928
0.00136864
-0.00956317
0.00168901
0.00169966
-0.02323
0.00222165
-0.0296806
0.00172485
-0.0240244
-0.0252328
0.00147001
0.00210905
0.00120745
0.00198198
0.0021955
-0.0295371
0.00125314
0.00159832
-0.0238186
0.00186689
-0.0249169
0.00142323
0.00205474
-0.0117048
0.00254663
0.00112636
0.00238108
0.00104544
-0.0117382
0.00170334
-0.0240092
0.00221549
-0.0297046
-0.0252211
0.00216404
0.00144533
0.00190575
0.00121719
0.00156881
-0.0238498
0.00187713
0.00208579
-0.0294539
0.00126174
-0.0250079
0.00204553
0.00139589
0.000619747
-0.021149
0.00297649
-0.00955402
-0.0289496
0.000698145
0.0026694
0.000603335
-0.0211521
0.00240582
0.00276149
0.00077931
-0.00959932
0.000655815
-0.0287528
0.00251225
0.000327738
-0.0250035
0.00282236
-0.0185722
-2.91952e-05
-0.0252648
0.00281869
-9.14542e-06
0.00259324
0.000306949
0.000347641
-0.0246753
0.0025733
0.00265555
-0.0185964
6.6138e-06
-0.0249365
0.00265762
1.72463e-05
-0.0116106
0.000883957
0.00204808
0.000733047
0.001701
-0.0116979
0.00249596
-0.00938396
0.000706014
0.000531534
-0.0208464
-0.0285625
0.00229056
0.000632155
0.00202683
-0.00949221
0.000559468
0.000458325
-0.0209652
0.00176714
-0.028509
0.00190662
0.000525015
0.00159032
-0.00949008
0.00156171
-0.00947327
-0.0230578
0.00150734
0.00147245
0.00124075
0.000927407
-0.00945567
0.00126114
0.000944706
-0.00945831
0.00115709
0.00116707
-0.02288
0.00194886
-0.0294474
0.00143089
-0.0236469
-0.0247279
0.00126447
0.00192632
0.000817115
0.00135193
0.00153738
-0.0293548
0.000888153
0.0011133
-0.0235858
0.00133465
-0.0247563
0.00103376
0.00164533
-0.0117282
0.0020757
0.000891057
0.00162736
0.000681365
-0.0116956
0.00141249
-0.0237306
0.00193849
-0.0293377
-0.0248542
0.00190515
0.00129216
0.00143997
0.000855449
0.00117675
-0.0236671
0.00136681
0.00164423
-0.0293716
0.000872442
-0.0248057
0.00168104
0.00109147
0.000526754
-0.0211326
0.00235079
-0.00951578
-0.0286081
0.000548104
0.00218471
0.000386386
-0.0210728
0.00159326
0.0019165
0.000499352
-0.00948501
0.000456593
-0.028525
0.00176313
0.000310846
-0.0244982
0.00229383
-0.0186058
8.85421e-06
-0.0246692
0.00233374
3.65426e-06
0.00173653
0.000199549
0.000240993
-0.0244327
0.00188658
0.00172351
-0.0185516
2.52069e-07
-0.0246221
0.00192344
-6.02012e-06
-0.0118167
0.000520015
0.00123841
8.87754e-05
0.000256244
-0.0118767
0.00139151
-0.00947473
0.000354702
0.000316606
-0.0210973
-0.0285411
0.00138895
0.000351257
0.000405844
-0.00952333
7.14939e-05
7.36588e-05
-0.0212146
0.000331142
-0.0287098
0.000521612
0.000126639
0.000852204
-0.00944404
0.000856228
-0.00944427
-0.0228211
0.000830142
0.000819412
0.000156411
9.86889e-05
-0.00948724
0.000160438
9.45757e-05
-0.00948729
0.000230964
0.000226533
-0.0229618
0.00114762
-0.0293537
0.000826905
-0.0236308
-0.0248222
0.000781417
0.001259
0.000138108
0.000228611
0.000407519
-0.0295628
0.000195901
0.000331476
-0.0239009
0.000398255
-0.0251375
0.000399693
0.000654621
-0.0118176
0.00124795
0.000515412
0.000264564
8.20886e-05
-0.0118777
0.000813302
-0.0237117
0.00113772
-0.0293599
-0.0248938
0.00124656
0.000792566
0.00023432
0.00012132
0.000311964
-0.0239594
0.000396554
0.000416755
-0.0295589
0.000168113
-0.0251767
0.000654333
0.000357268
0.000273254
-0.0211023
0.00139775
-0.00948069
-0.0285175
0.000340612
0.00132294
5.86381e-05
-0.0212236
0.000344526
0.000404871
7.03511e-05
-0.009523
0.000114999
-0.0287018
0.00053283
0.000203014
-0.0244512
0.00123847
-0.0185513
1.59808e-06
-0.0246373
0.0014492
7.46357e-06
0.000355332
3.14529e-05
8.69055e-05
-0.024684
0.000616261
0.000322346
-0.018653
4.28907e-07
-0.0248753
0.000644906
2.34987e-06
-0.0120304
-0.000288798
-0.000612023
-0.000706552
-0.00152347
-0.0122659
-0.000600316
-0.00963259
-0.000198182
-0.000131175
-0.0214935
-0.029121
-0.000244559
-7.57376e-05
-0.00167534
-0.00981154
-0.000486634
-0.000354853
-0.0219447
-0.00128018
-0.0297917
-0.0010983
-0.000261182
-0.000524262
-0.00960201
-0.000519338
-0.00960214
-0.0232839
-0.000357186
-0.000364277
-0.00124935
-0.000979536
-0.00978713
-0.00124831
-0.00097765
-0.00979
-0.000986642
-0.000977475
-0.0238175
-0.000239108
-0.0300509
-0.00020108
-0.0243432
-0.0256897
4.07487e-07
0.00011154
-0.000788452
-0.00119058
-0.000965255
-0.0307359
-0.000661682
-0.000748855
-0.0249816
-0.000789983
-0.0263979
-0.000470692
-0.000535204
-0.0120317
-0.000605152
-0.00029378
-0.00153638
-0.000689594
-0.0122706
-0.000216494
-0.0243929
-0.000223316
-0.030052
-0.0257102
0.00012324
-2.95687e-05
-0.00119837
-0.000774738
-0.000725222
-0.0250453
-0.000798191
-0.000984362
-0.0307677
-0.000611014
-0.0264465
-0.000534802
-0.000438462
-0.000139683
-0.0215062
-0.000594024
-0.00963182
-0.0291147
-7.97126e-05
-0.000241126
-0.000327841
-0.0219442
-0.0013025
-0.00167373
-0.000489848
-0.00980619
-0.000249203
-0.0297451
-0.00112197
-3.47895e-05
-0.0250928
-0.00059589
-0.0188626
-6.89031e-07
-0.0253147
-0.000187778
-3.47758e-06
-0.00150857
-0.000194389
-0.000108979
-0.025637
-0.00110453
-0.0015524
-0.019193
-5.05472e-07
-0.0258516
-0.00113733
1.28862e-05
-0.00111949
-0.00247381
-0.0124994
-0.00276874
-0.0099962
-0.000791072
-0.000599449
-0.0223734
-0.00219507
-0.0304353
-0.000529526
-0.00199077
-0.0099681
-0.00198953
-0.00997216
-0.00173681
-0.00172148
-0.0243395
-0.00192475
-0.0313954
-0.00144084
-0.0256172
-0.00109829
-0.00158575
-0.0270794
-0.00247681
-0.00112066
-0.0124987
-0.00143608
-0.0256485
-0.00192301
-0.031421
-0.00158186
-0.001116
-0.0271078
-0.000588486
-0.0223778
-0.00276319
-0.00998988
-0.000547503
-0.0021859
-0.0303634
-0.0003252
-0.0261527
-0.00257631
-0.0195674
-3.97918e-06
-0.00227593
-0.0264594
-1.78114e-05
0.00202843
-0.0276346
0.000497907
0.000921025
-0.027032
-0.0268173
0.00195252
0.000599039
0.000830453
0.00199904
0.00209268
-0.0274807
0.000606585
0.000944396
0.00194195
-0.026697
0.00204678
-0.0264866
0.000659615
0.00166953
-0.0263521
0.00167293
-0.0263928
-0.0258463
0.0014069
0.00141245
0.00161652
0.00161825
0.00172391
0.00134266
-0.0259355
0.00172869
0.00134648
-0.0259828
0.00147151
0.0014715
-0.0253367
0.00186093
-0.0255722
0.000609549
0.00112371
-0.0250776
-0.0245062
0.00158175
0.000714853
0.00105284
0.00180728
0.00191876
-0.025097
0.000705669
0.00116124
0.00156444
-0.0245245
0.00166512
-0.0238604
0.000769084
0.000955229
-0.0271266
0.00199701
-0.0276758
-0.0269142
0.00190603
0.000639841
0.0019723
0.000879829
0.00100437
0.00193169
-0.0268472
0.00205944
0.000599342
-0.0274097
0.00202047
0.000691688
-0.0265625
0.0011258
-0.0250931
0.0018507
-0.0256768
-0.0245365
0.00158176
0.000721247
0.00180865
0.00107669
0.00116304
0.00156685
-0.0245428
0.00191469
0.000736067
-0.0252304
0.00166783
0.000776772
-0.0239033
0.00130173
-0.0233683
0.000765325
0.00130372
-0.0233722
-0.0225586
0.000885625
0.000903548
0.00124908
0.00124687
0.00133611
-0.02262
0.000829778
0.00133928
0.000828256
-0.022625
0.000917539
-0.0217267
0.000925989
0.000337123
-0.0263695
0.00211207
-0.0266512
3.09196e-07
-0.0259297
0.00200085
-8.23719e-06
0.00215156
0.00031399
0.000347644
0.00208193
-0.0259558
0.00221352
-0.0263186
1.70879e-06
0.00212913
-0.0254987
1.05516e-06
0.000403367
-0.0239274
0.00196923
-0.0247046
-9.75013e-06
-0.0233758
0.00168847
-2.32761e-06
0.00199495
0.000373689
0.000416891
0.00173947
-0.023312
0.00203422
-0.0242355
-5.23322e-07
0.00177679
-0.0227034
1.91489e-06
0.0004873
-0.0216777
0.000916002
0.00137293
-0.0219823
4.06411e-07
-0.0210748
0.000919631
1.79519e-06
0.00139741
0.000453453
0.000493871
-0.02084
0.000983401
0.00141996
-0.021173
1.02716e-06
-0.0201464
0.00098406
1.43014e-06
0.00228657
-0.0271992
0.000646081
0.00110251
-0.0263151
-0.0260351
0.00219892
0.000738677
0.00103507
0.00226056
0.00237527
-0.0268306
0.000684861
0.00118212
0.00225927
-0.0260158
0.0023481
-0.025673
0.000847223
0.00194178
-0.0255281
0.00194623
-0.025582
-0.0247647
0.00165827
0.00165773
0.0018939
0.00189901
0.00202133
0.00162496
-0.0251227
0.00202299
0.00162706
-0.0251804
0.00175722
0.00175894
-0.0242365
0.00207137
-0.0245478
0.000781826
0.0012893
-0.0238476
-0.0230852
0.00176455
0.000820987
0.0012971
0.0021286
0.00222792
-0.0240466
0.000916096
0.00140417
0.00186214
-0.0232281
0.00195831
-0.0223785
0.000967024
0.00111825
-0.0264761
0.00236012
-0.0270645
-0.0260762
0.0022423
0.000749753
0.00232696
0.000965032
0.00115213
0.00227259
-0.0261088
0.00250376
0.000641402
-0.0266931
0.00240267
0.000800349
-0.0256234
0.00129359
-0.0238724
0.00206486
-0.0246453
-0.0231477
0.00176494
0.000837888
0.0021211
0.00131505
0.00142156
0.00186119
-0.0232752
0.00219487
0.000931488
-0.0240539
0.00194474
0.000999933
-0.022476
0.00138399
-0.0217436
0.00082897
0.00138993
-0.0217599
-0.0207663
0.000904984
0.000908548
0.00149152
0.0014968
0.00156173
-0.0208449
0.000989348
0.00155281
0.00101069
-0.0208818
0.00104183
-0.0197091
0.00101547
0.000386236
-0.0254096
0.00251115
-0.0259206
3.02766e-06
-0.0249272
0.00231288
1.30131e-05
0.00266508
0.000343371
0.000417972
0.002503
-0.0248652
0.0027182
-0.0255316
-2.04336e-06
0.00254393
-0.0243318
-3.22091e-06
0.000433104
-0.0226341
0.00210252
-0.0236321
1.03657e-05
-0.0220246
0.0018524
4.37236e-06
0.00223587
0.000448853
0.000472877
0.00199837
-0.0218695
0.00224273
-0.022877
-5.02105e-06
0.00198803
-0.0212988
1.84841e-06
0.000497053
-0.0199753
0.00101109
0.00150049
-0.0203647
-1.92164e-08
-0.019186
0.00103719
-1.22339e-07
0.00160527
0.000506724
0.000545604
-0.0189628
0.00108898
0.00160883
-0.0194823
3.53422e-06
-0.018154
0.00111909
3.43262e-06
0.00245563
-0.0263622
0.000661439
0.00119833
-0.0256809
-0.02522
0.00239327
0.000807675
0.00104497
0.00240623
0.0025747
-0.0259681
0.00071612
0.00120471
0.00231583
-0.0252775
0.00246119
-0.0247247
0.000822924
0.0020771
-0.0247512
0.00207429
-0.0247936
-0.0237247
0.00181887
0.0018207
0.00194064
0.00194701
0.00209033
0.00169355
-0.024385
0.00208321
0.00167374
-0.0243758
0.00185257
0.00185134
-0.0232551
0.0022864
-0.0235355
0.000939864
0.00146307
-0.0226211
-0.0216994
0.00204893
0.00102144
0.00137408
0.00222748
0.00236191
-0.0230261
0.000963921
0.00151112
0.00200548
-0.0220577
0.00214233
-0.0210352
0.00106652
0.00119084
-0.0257117
0.00255886
-0.0262662
-0.0251502
0.00245816
0.000818419
0.00248834
0.00105017
0.00117039
0.00236109
-0.025274
0.00264616
0.000706307
-0.025859
0.00253631
0.000801668
-0.0246717
0.00147698
-0.0226781
0.00232707
-0.0235244
-0.0217691
0.00205067
0.0010465
0.00224142
0.00134756
0.0015088
0.00200345
-0.0220976
0.00241694
0.000951182
-0.0230087
0.00212996
0.00107656
-0.0210499
0.00166663
-0.0199659
0.00106893
0.00164473
-0.0199996
-0.0186391
0.00115465
0.00108676
0.00163902
0.00164371
0.00176201
-0.019093
0.00114645
0.00174987
0.00116452
-0.0191403
0.00124344
-0.0175879
0.00121721
0.000455742
-0.024377
0.00280392
-0.0251566
3.71905e-06
-0.0237686
0.00268288
1.35778e-05
0.00279866
0.000349447
0.000423216
0.00270525
-0.0239051
0.00284975
-0.0247978
-3.2811e-06
0.00278191
-0.0232817
4.21762e-06
0.000515241
-0.0210607
0.00246726
-0.0221665
1.11827e-05
-0.0204971
0.00217734
3.47039e-06
0.00254029
0.000494861
0.000518433
0.00221706
-0.0201793
0.00260769
-0.021499
1.63575e-06
0.00225597
-0.0196178
-9.15754e-06
0.000593159
-0.0178215
0.00115804
0.00178058
-0.0185363
8.25479e-07
-0.0169924
0.00121148
6.05362e-07
0.0018496
0.000562397
0.000629605
-0.0166563
0.00129819
0.00188332
-0.017591
-1.02991e-05
-0.0158184
0.00134057
-1.63971e-06
0.00261959
-0.0256359
0.000726667
0.00117146
-0.0248435
-0.024246
0.00249298
0.000819398
0.000989931
0.00235966
0.00253643
-0.0253547
0.000712403
0.0011383
0.00227701
-0.0244759
0.00251879
-0.0238926
0.000802519
0.00201495
-0.0240626
0.00203732
-0.0240144
-0.0228823
0.00184311
0.00183636
0.00178667
0.00176568
0.00192986
0.001625
-0.023776
0.00198629
0.00158794
-0.0237774
0.00182467
0.00180061
-0.0225914
0.00236417
-0.0225083
0.000968417
0.00153358
-0.0215978
-0.0204302
0.00219124
0.00110153
0.00135209
0.00212412
0.00238881
-0.0219901
0.000963803
0.00156652
0.00201557
-0.0212311
0.00223337
-0.0198821
0.00117386
0.00115364
-0.0249077
0.00262546
-0.0254867
-0.0242299
0.00254747
0.000789813
0.00235114
0.00101502
0.00113779
0.00227987
-0.0245783
0.00251516
0.000674812
-0.0251494
0.00249914
0.000741714
-0.0238178
0.00152666
-0.0215942
0.00243598
-0.0225213
-0.0204073
0.00218883
0.00113121
0.00218259
0.00130747
0.00151757
0.0020324
-0.021161
0.00242965
0.000898886
-0.0220432
0.00227584
0.00111656
-0.0198525
0.00185121
-0.0182599
0.00119943
0.00183755
-0.0183354
-0.0165404
0.00133382
0.00130747
0.0017507
0.00174793
0.001935
-0.017512
0.00130112
0.00192913
0.00129404
-0.0175348
0.00141313
-0.0154837
0.00139427
0.000389097
-0.0234512
0.00282585
-0.0244627
-1.38255e-05
-0.0228718
0.00281003
-4.96499e-06
0.00261367
0.000350932
0.000363875
0.0026491
-0.0231088
0.00269059
-0.0241601
1.53834e-05
0.00274634
-0.0225685
4.79349e-06
0.000564009
-0.0193189
0.00269224
-0.0208796
-9.51742e-06
-0.0187094
0.00237249
-2.46541e-05
0.00262459
0.000464188
0.00058598
0.00243828
-0.018602
0.00273278
-0.0204051
3.26924e-06
0.00251131
-0.0179195
1.75471e-05
0.000662732
-0.0154315
0.00139975
0.00198966
-0.0165702
-2.62188e-05
-0.0145944
0.00143639
-7.99187e-06
0.00205404
0.000647592
0.000710654
-0.0141746
0.0014996
0.00209
-0.0155144
1.31456e-05
-0.0133488
0.00154079
1.42552e-05
0.0023064
-0.0251468
0.000660074
0.00103802
-0.0243137
-0.0237078
0.00240281
0.000756824
0.000789833
0.00179561
0.00202547
-0.0250388
0.000562919
0.000951778
0.0019052
-0.0243413
0.00217925
-0.0236181
0.00070823
0.0018751
-0.0236097
0.00188397
-0.023676
-0.0224109
0.00180127
0.00177728
0.00135063
0.0013453
0.00164729
0.00131212
-0.0235731
0.00168729
0.00134484
-0.0236818
0.00166656
0.00163053
-0.0223734
0.00241696
-0.0216386
0.000916659
0.00157668
-0.0209125
-0.0193466
0.00229337
0.00116475
0.00117171
0.00199821
0.00233707
-0.0214961
0.000871412
0.00150257
0.00195344
-0.0207038
0.00229921
-0.0189072
0.001101
0.0010504
-0.024373
0.00227752
-0.0249759
-0.0235934
0.00237015
0.000733396
0.00177536
0.000704888
0.000923216
0.00190897
-0.0243383
0.00194996
0.00053362
-0.0249914
0.00215453
0.000697395
-0.0235721
0.00153161
-0.0208192
0.00240897
-0.0216789
-0.0193187
0.00231514
0.00109162
0.00201637
0.00119435
0.00150089
0.00201665
-0.0206898
0.00231543
0.000862236
-0.0215077
0.00234679
0.00107567
-0.0189248
0.00201941
-0.0168007
0.00138018
0.00203294
-0.016793
-0.014456
0.00150388
0.00152075
0.00183105
0.00180614
0.00208006
-0.0161429
0.00139246
0.00211222
0.0013614
-0.0161137
0.00158577
-0.0134675
0.001618
0.000393695
-0.0229132
0.0024662
-0.0239412
2.71386e-06
-0.0223401
0.00262631
5.21143e-06
0.00211742
0.000289966
0.000392743
0.00236483
-0.0228559
0.00219275
-0.0239107
-9.86497e-06
0.00248008
-0.0222349
1.65138e-07
0.000581169
-0.0180222
0.00273379
-0.0200681
1.60105e-05
-0.0172743
0.0026536
1.61901e-05
0.00257723