/*--------------------------------*- C++ -*----------------------------------*\
| =========                 |                                                 |
| \\      /  F ield         | OpenFOAM: The Open Source CFD Toolbox           |
|  \\    /   O peration     | Version:  2.3.1                                 |
|   \\  /    A nd           | Web:      www.OpenFOAM.org                      |
|    \\/     M anipulation  |                                                 |
\*---------------------------------------------------------------------------*/
FoamFile
{
    version     2.0;
    format      ascii;
    class       volScalarField;
    location    "40/fluid";
    object      T;
}
// * * * * * * * * * * * * * * * * * * * * * * * * * * * * * * * * * * * * * //

dimensions      [0 0 0 1 0 0 0];

internalField   nonuniform List<scalar> 
25373
(
360.975
362.132
360.974
362.913
365.43
362.128
365.429
369.267
361.17
363.065
367.214
371.817
360.134
361.529
360.132
362.55
365.762
361.522
365.76
370.696
360.341
362.736
368.054
373.958
358.86
359.646
358.859
360.571
363.893
359.641
363.89
369.753
359.079
361.002
367.016
374.282
357.207
358.333
357.205
359.552
363.876
358.327
363.872
371.454
357.489
360.099
367.857
377.413
354.936
356.457
354.934
358.151
363.998
356.455
363.994
374.2
355.308
358.879
369.33
382.131
351.8
353.895
351.801
356.266
364.264
353.904
364.266
378.297
352.273
357.256
371.608
389.155
347.4
350.329
347.414
353.584
364.621
350.349
364.631
384.281
347.984
354.967
374.9
399.75
341.212
345.203
341.214
349.511
364.727
345.211
364.749
392.702
341.923
351.43
379.157
416.097
332.791
337.767
332.791
343.105
362.815
337.767
362.824
402.944
333.602
345.584
382.855
441.156
322.462
327.666
322.464
333.331
355.586
327.667
355.596
408.134
323.237
336.018
380.642
466.74
361.062
360.718
361.136
361.179
361.236
360.787
360.836
360.894
360.918
360.917
360.995
360.563
360.562
360.645
361.13
361.354
361.734
360.625
360.795
361.031
361.479
361.06
360.716
361.353
361.128
361.732
360.623
361.03
360.792
361.477
361.176
361.133
361.233
360.833
360.784
360.89
361.491
361.182
361.583
360.824
361.164
360.837
361.264
360.224
359.606
360.301
360.364
360.428
359.695
359.722
359.821
360.065
360.064
360.157
359.465
359.464
359.569
360.322
360.598
361.085
359.539
359.738
360.058
360.697
360.22
359.601
360.597
360.318
361.082
359.538
360.057
359.734
360.694
360.359
360.296
360.423
359.717
359.69
359.815
360.734
360.357
360.851
359.743
360.153
359.767
360.29
358.891
358.135
359.024
358.978
359.156
358.286
358.239
358.441
358.778
358.777
358.891
358.002
358.001
358.132
359.066
359.442
360.291
358.099
358.342
358.772
359.756
358.887
358.132
359.441
359.063
360.288
358.097
358.77
358.339
359.753
358.974
359.018
359.15
358.236
358.28
358.435
359.514
359.113
359.695
358.345
358.846
358.384
359.053
357.25
356.212
357.425
357.372
357.603
356.414
356.352
356.62
357.094
357.093
357.245
356.03
356.029
356.207
357.489
357.987
359.126
356.162
356.49
357.074
358.401
357.247
356.207
357.984
357.485
359.122
356.159
357.071
356.486
358.395
357.367
357.412
357.594
356.345
356.395
356.61
358.066
357.534
358.304
356.485
357.162
356.538
357.439
354.994
353.563
355.226
355.155
355.467
353.825
353.75
354.113
354.782
354.781
354.991
353.315
353.314
353.565
355.319
356.009
357.557
353.496
353.945
354.765
356.576
354.987
353.555
356.007
355.315
357.552
353.495
354.766
353.942
356.574
355.147
355.202
355.457
353.74
353.795
354.1
356.108
355.37
356.431
353.919
354.87
353.99
355.247
351.873
349.863
352.165
352.091
352.514
350.187
350.119
350.613
351.585
351.585
351.885
349.539
349.543
349.9
352.329
353.309
355.43
349.791
350.411
351.581
354.07
351.86
349.846
353.311
352.328
355.431
349.798
351.585
350.415
354.071
352.077
352.127
352.499
350.1
350.144
350.598
353.414
352.358
353.857
350.317
351.69
350.417
352.214
347.471
344.617
347.823
347.77
348.348
345.004
344.963
345.641
347.106
347.119
347.542
344.222
344.23
344.742
348.131
349.522
352.454
344.564
345.416
347.06
350.488
347.45
344.605
349.523
348.135
352.446
344.572
347.059
345.418
350.483
347.743
347.786
348.33
344.943
344.98
345.627
349.628
348.098
350.252
345.21
347.15
345.338
347.888
341.229
337.283
341.671
341.627
342.419
337.771
337.73
338.628
340.821
340.822
341.428
336.854
336.854
337.546
342.183
344.1
348.057
337.291
338.385
340.573
345.053
341.225
337.281
344.104
342.186
348.068
337.292
340.575
338.386
345.056
341.62
341.661
342.413
337.727
337.768
338.624
344.178
342.066
345.034
338.062
340.638
338.219
341.619
332.768
327.757
333.286
333.254
334.232
328.281
328.265
329.291
332.313
332.313
333.071
327.288
327.287
328.084
333.982
336.389
341.316
327.79
329.044
331.569
336.793
332.767
327.756
336.388
333.981
341.313
327.79
331.568
329.044
336.789
333.253
333.283
334.228
328.266
328.279
329.288
336.445
333.771
337.525
328.607
331.617
328.779
332.749
322.425
322.927
322.925
323.944
321.969
321.969
322.753
323.707
326.195
331.419
322.425
326.199
323.708
331.421
322.924
322.923
323.937
326.237
323.4
327.349
360.347
361.409
362.593
359.071
359.863
361.05
362.402
362.133
362.131
364.411
360.119
361.884
361.882
364.456
365.621
366.799
369.016
363.874
365.804
367.153
369.638
361.405
360.339
362.586
359.066
361.045
359.854
362.39
366.798
365.616
369.014
363.87
367.152
365.795
369.634
372.274
372.273
375.293
370.476
373.434
373.433
376.77
363.617
361.399
364.22
360.605
363.543
361.052
364.226
370.725
367.806
371.658
367.355
371.565
368.243
372.627
377.346
375.181
378.514
375.666
379.22
376.85
380.517
359.244
360.62
362.172
357.468
358.521
360.134
361.927
361.588
361.585
364.548
358.901
361.27
361.267
364.708
366.085
367.643
370.487
363.919
366.468
368.288
371.562
360.613
359.234
362.158
357.463
360.127
358.52
361.92
367.642
366.074
370.483
363.915
368.286
366.458
371.555
374.849
374.848
378.669
372.682
376.584
376.583
380.973
363.476
360.613
364.262
359.53
363.451
360.126
364.351
372.695
368.872
373.915
368.509
374.093
369.673
375.492
381.497
378.789
382.986
379.533
384.234
381.12
385.952
357.682
359.573
361.658
355.276
356.709
358.928
361.358
360.916
360.913
364.929
357.282
360.518
360.515
365.217
366.959
369.093
372.892
364.113
367.563
370.083
374.51
359.569
357.693
361.663
355.278
358.93
356.731
361.382
369.092
366.953
372.883
364.111
370.081
367.572
374.505
378.722
378.72
383.797
376.049
381.322
381.319
387.234
363.453
359.576
364.498
358.127
363.481
358.944
364.708
375.818
370.677
377.433
370.353
377.925
371.928
379.809
387.561
383.962
389.544
385.295
391.626
387.435
393.946
355.58
358.182
361.032
352.266
354.253
357.302
360.658
360.056
360.054
365.57
355.053
359.492
359.495
365.969
368.306
371.282
376.474
364.438
369.203
372.705
378.842
358.191
355.614
361.074
352.282
357.314
354.296
360.712
371.28
368.335
376.476
364.445
372.708
369.249
378.858
384.492
384.487
391.446
381.012
388.359
388.354
396.631
363.539
358.213
364.982
356.225
363.614
357.35
365.304
380.488
373.46
382.702
373.122
383.614
375.311
386.239
396.613
391.674
399.357
393.893
402.787
396.895
406.079
352.672
356.249
360.198
348.001
350.752
354.923
359.567
358.791
358.796
366.401
351.776
357.882
357.887
366.827
370.265
374.383
381.698
364.744
371.446
376.317
385.084
356.26
352.718
360.252
348.021
354.939
350.788
359.611
374.387
370.31
381.712
364.755
376.32
371.472
385.092
393.093
393.083
403.069
388.179
398.873
398.862
411.122
363.66
356.292
365.654
353.406
363.635
354.956
365.968
387.407
377.509
390.559
376.938
391.97
380.068
395.818
410.527
403.373
414.539
407.029
420.373
411.511
425.418
348.387
353.214
358.635
341.833
345.445
350.931
357.16
356.615
356.629
367.078
346.677
354.804
354.811
367.014
372.625
378.386
388.975
364.188
373.475
380.394
393.237
353.23
348.399
358.651
341.831
350.934
345.439
357.155
378.407
372.634
388.985
364.208
380.418
373.476
393.251
405.867
405.877
421.242
397.771
414.228
414.253
434.018
363.382
353.234
366.129
348.889
362.638
350.971
365.963
397.388
382.935
402.154
381.345
403.638
385.901
409.588
433.088
421.793
439.692
427.361
449.758
434.803
458.888
341.759
347.841
354.866
333.031
337.271
343.791
351.424
352.164
352.162
365.974
338.695
348.468
348.464
363.764
373.746
381.589
397.453
360.208
372.492
381.748
400.171
347.841
341.757
354.864
333.034
343.791
337.27
351.425
381.611
373.741
397.469
360.204
381.734
372.479
400.136
423.829
423.871
450.008
407.07
433.932
433.953
497.195
361.071
347.893
364.827
341.358
358.289
343.822
362.429
410.416
388.404
417.884
383.278
416.729
389.632
426.212
469.129
451.068
488.142
446.179
518.806
466.532
567.568
331.917
338.526
346.388
343.3
343.302
359.343
368.805
378.941
400.256
338.53
331.909
346.392
378.947
368.818
400.253
423.807
423.881
494.005
353.528
338.492
357.899
419.467
388.071
420.087
474.485
499.444
527.406
522.337
522.8
517.369
503.666
561.014
505.698
546.634
516.529
507.006
504.836
470.108
506.931
481.152
501.68
476.245
535.186
531.623
523.027
557.839
317.063
317.504
317.51
318.428
316.655
316.656
317.35
317.096
318.216
320.434
325.178
317.063
317.097
320.436
318.216
325.177
317.509
317.5
318.421
317.775
320.493
317.92
321.494
321.783
325.663
331.736
339.16
326.908
336.185
336.184
351.614
347.961
361.04
371.312
321.783
331.742
325.653
339.161
347.971
371.325
361.054
329.434
346.01
331.723
471.208
516.03
498.577
498.673
514.296
454.25
487.25
468.338
565.275
552.729
510.335
506.934
484.045
478.644
544.332
563.554
483.889
453.614
500.143
450.347
476.881
461.827
491.278
491.108
499.311
492.538
479.194
513.175
507.134
538.65
556.089
566.868
554.352
555.031
553.265
539.753
493.912
469.047
510.88
485.324
485.258
463.972
565.802
565.356
535.989
565.61
547.422
532.79
551.017
551.799
528.474
542.008
546.635
535.074
522.803
555.187
554.787
552.615
567.291
542.683
562.824
559.661
552.949
565.943
538.113
564.036
553.855
549.575
566.858
542.718
562.244
548.781
559.475
563.762
567.85
562.38
551.324
530.284
544.952
550.096
542.803
563.189
558.532
531.297
542.021
527.092
547.174
553.115
539.523
556.813
553.497
551.958
536.762
517.769
556.676
539.015
555.67
535.561
546.814
559.689
549.168
539.351
563.643
555.979
532.397
546.266
521.96
549.61
512.26
535.755
525.109
512.018
537.825
528.603
514.063
534.866
508.754
542.416
516.998
515.284
542.248
517.273
546.648
544.684
519.039
557.738
553.098
556.096
564.298
562.66
393.558
393.555
402.311
421.344
421.368
350.199
373.052
380.432
416.223
562.483
550.824
542.997
558.747
518.503
556.979
539.923
551.692
513.084
537.04
556.24
514.579
537.147
509.278
542.966
518.113
548.243
546.915
519.974
541.884
521.813
530.707
527.951
451.141
483.272
475.73
475.698
465.031
465.015
457.375
483.517
484.768
472.15
506.158
469.528
502.081
487.123
476.881
458.053
462.77
493.456
455.249
488.981
480.647
536.94
524.571
511.059
533.056
516.479
524.805
545.446
524.942
540.905
518.198
534.353
504.394
513.209
518.949
508.904
529.82
524.421
505.406
518.97
502.53
524.239
513.456
511.891
533.424
508.471
529.218
527.565
509.747
523.487
502.003
494.451
501.021
511.85
520.872
494.72
541.032
527.021
530.419
521.868
512.808
531.539
521.75
509.223
445.61
438.7
466.717
445.658
438.695
466.717
444.191
419.231
448.367
494.584
524.783
515.411
502.179
476.711
457.118
478.488
483.167
463.752
466.882
494.235
469.831
442.142
468.594
455.871
459.393
448.86
480.472
445.484
439.378
465.033
437.658
424.036
460.649
442.935
445.552
439.407
465.044
437.653
424.088
460.591
442.949
444.67
421.947
448.466
446.347
442.533
422.789
421.107
403.129
410.585
425.632
435.916
578.618
577.98
586.414
595.29
574.491
584.282
594.544
574.639
584.344
594.558
574.297
584.12
594.466
574.999
584.555
594.636
576.925
585.8
575.418
584.857
594.758
574.725
584.37
594.59
574.176
584.027
594.466
575.208
584.693
594.717
573.066
583.421
573.986
583.98
594.447
575.55
584.927
594.805
574.026
583.936
594.422
578.368
577.378
586.039
595.159
576.756
585.672
595.027
577.851
586.333
595.261
577.496
586.119
595.19
576.937
585.782
595.078
574.139
584.037
594.442
574.854
584.527
594.628
577.273
576.706
585.65
595.029
576.695
576.049
585.266
594.902
574.731
584.437
574.41
584.205
594.512
575.424
576.089
574.665
584.335
594.544
575.724
585.023
594.806
575.189
584.694
594.681
574.724
584.434
594.6
575.759
584.996
594.793
576.772
585.633
595.024
576.052
585.181
594.855
575.951
585.188
594.869
577.091
585.836
595.078
576.806
585.691
595.041
576.484
585.55
594.995
577.427
586.077
595.163
577.354
585.99
595.141
576.651
585.573
595.006
576.106
585.213
594.851
576.18
585.281
594.881
575.141
584.66
594.666
575.521
584.885
594.735
575.507
584.888
594.744
573.743
583.892
594.437
573.593
583.698
594.349
573.659
583.755
594.375
573.02
583.369
594.218
574.446
584.217
594.535
573.369
583.556
594.3
574.2
584.077
594.489
572.579
583.044
594.096
572.802
583.224
594.179
572.578
583.083
594.126
572.148
582.819
594.022
572.094
582.794
594.001
574.216
584.198
594.557
574.591
584.323
594.595
573.287
583.59
594.33
573.659
583.616
594.297
573.248
583.37
594.218
575.159
584.676
594.699
574.009
583.913
594.419
573.115
583.407
594.263
573.378
583.617
594.367
571.971
582.627
593.967
572.436
583.008
594.102
573.043
583.403
594.27
572.576
583.003
594.101
571.089
582.142
593.75
572.132
571.848
582.715
594.031
571.87
582.645
593.973
572.072
582.772
594.028
571.461
582.378
593.874
571.156
582.124
593.741
421.702
530.256
417.456
442.069
434.868
464.447
417.45
442.141
434.854
464.454
411.011
440.184
444.475
414.214
469.211
451.186
477.007
498.749
498.818
466.077
486.854
482.861
432.313
398.497
405.564
556.234
555.521
550.532
558.731
524.453
512.256
537.684
548.217
539.164
539.236
517.985
536.849
508.237
542.955
513.638
519.398
517.426
500.849
514.792
493.25
571.451
571.39
582.353
571.205
582.224
571.377
582.305
572.493
583.067
571.411
361.173
363.07
367.217
371.817
374.815
360.346
362.747
368.06
373.958
377.798
359.085
361.012
367.026
374.283
379.474
357.501
360.109
367.881
377.417
384.493
355.331
358.855
369.333
382.14
391.555
352.31
357.216
371.556
389.168
402.087
348.021
354.938
374.854
399.769
418.5
341.932
351.439
379.167
416.084
446.216
333.606
345.586
382.867
441.17
481.27
323.241
336.033
380.629
483.865
553.271
361.186
361.495
361.587
360.827
360.841
361.169
361.269
360.362
360.741
360.857
359.748
359.772
360.161
360.298
359.119
359.522
359.704
358.352
358.391
358.854
359.062
357.547
358.073
358.313
356.504
356.557
357.164
357.442
355.393
356.107
356.434
353.949
354.022
354.868
355.253
352.394
353.407
353.858
350.356
350.452
351.676
352.205
348.131
349.615
350.241
345.232
345.359
347.153
347.893
342.077
344.19
345.055
338.066
338.226
340.643
341.632
333.777
336.451
337.538
328.61
328.783
331.626
332.762
323.404
326.249
327.358
361.413
363.629
364.236
360.618
361.067
363.565
364.249
367.819
370.729
371.664
367.375
368.271
371.574
372.64
375.184
377.345
378.515
375.668
376.856
379.218
380.519
380.727
380.727
382.026
381.81
383.186
383.185
384.601
360.623
363.5
364.286
359.521
360.116
363.448
364.35
368.904
372.708
373.934
368.523
369.689
374.109
375.514
378.798
381.494
382.989
379.538
381.131
384.231
385.955
386.065
386.063
387.678
387.69
389.501
389.5
391.356
359.554
363.431
364.47
358.094
358.92
363.442
364.667
370.673
375.836
377.446
370.326
371.892
377.93
379.805
383.968
387.563
389.547
385.305
387.436
391.629
393.942
393.645
393.644
395.788
396.278
398.707
398.711
401.197
358.187
363.485
364.938
356.18
357.321
363.554
365.274
373.407
380.483
382.694
373.058
375.261
383.594
386.222
391.685
396.616
399.354
393.909
396.911
402.789
406.081
404.961
404.97
407.901
409.322
412.785
412.795
416.326
356.272
363.615
365.631
353.403
354.963
363.619
365.971
377.48
387.382
390.534
376.927
380.077
391.957
395.813
403.393
410.535
414.557
407.039
411.526
420.391
425.437
422.764
422.767
427.14
430.399
435.828
435.831
441.429
353.258
363.382
366.144
348.895
350.992
362.647
365.979
382.959
397.388
402.162
381.361
385.923
403.658
409.61
421.788
433.105
439.694
427.357
434.803
449.786
458.894
453.505
453.514
461.088
467.819
483.799
483.79
502.61
347.912
361.071
364.834
341.365
343.84
358.286
362.43
388.413
410.435
417.892
383.273
389.615
416.746
426.182
451.092
469.191
488.169
446.132
466.552
519.112
567.547
501.855
501.833
525.94
540.163
338.503
353.534
357.892
388.023
419.506
420.118
474.509
537.592
537.413
499.479
527.456
522.352
563.431
522.842
517.406
503.69
563.305
543.442
498.167
513.505
524.243
509.581
519.731
551.426
543.428
498.127
513.498
524.187
509.563
519.643
551.418
548.811
521.685
521.696
567.327
517.514
560.252
560.222
557.083
517.953
568.36
568.26
527.121
527.105
561.822
540.107
532.749
567.72
561.814
540.029
532.673
567.721
565.824
573.239
573.504
529.813
470.11
506.98
481.149
501.645
476.219
535.215
528.534
505.755
567.233
516.556
507.086
553.805
531.637
523.126
557.8
567.095
317.78
317.924
320.504
321.503
329.457
331.739
346.043
501.967
454.22
468.296
487.228
537.853
484.003
478.582
544.464
535.732
510.335
557.839
563.899
524.212
491.125
491.104
497.995
502.088
510.584
510.538
453.583
466.706
500.044
450.331
461.815
476.851
491.213
565.296
565.089
561.234
491.13
499.391
492.601
557.281
479.232
513.184
507.125
538.672
556.13
554.358
566.908
555.053
553.251
539.792
557.146
568.52
567.793
568.477
567.8
549.957
565.947
565.179
566.931
536.011
565.559
549.428
547.44
532.852
552.906
551.036
549.328
552.883
541.862
534.142
555.367
555.25
537.988
537.966
560.639
546.841
549.475
566.297
566.278
565.352
548.164
548.167
544.246
558.785
541.779
563.817
540.492
562.597
545.538
544.292
558.817
541.758
563.881
540.501
562.761
545.559
555.698
548.186
548.193
570.994
538.297
563.604
563.609
559.806
561.034
556.198
570.192
547.116
566.702
559.831
561.036
556.206
570.208
547.11
566.908
569.22
572.865
554.263
564.908
559.372
568.962
567.793
556.372
538.976
554.154
555.163
552.55
568.488
562.674
566.498
571.48
564.669
542.68
536.267
548.236
552.571
549.855
559.849
566.988
562.978
561.848
572.581
554.257
564.943
559.35
568.961
567.651
556.268
538.855
554.214
555.046
552.379
568.43
562.715
566.474
571.413
564.578
542.584
536.142
548.038
552.572
549.465
559.744
566.997
563.06
561.92
569.354
569.273
575.01
572.743
572.742
551.903
561.118
541.871
546.395
534.867
522.723
555.192
554.906
559.139
552.747
567.402
542.932
562.638
559.413
547
563.165
553.02
554.819
566.072
538.257
564.093
549.566
566.737
542.631
548.537
562.07
562.23
551.362
530.337
544.885
550.007
543.093
563.254
559.54
563.863
568.083
558.482
531.261
527.103
542.276
547.127
539.237
553.255
556.856
553.495
552.064
559.226
562.979
554.96
536.146
555.378
538.6
512.002
506.899
528.611
513.962
535.023
508.76
542.132
542.423
515.297
517.016
517.165
546.548
544.469
519
555.881
565.528
546.829
559.641
549.208
539.458
563.934
552.577
555.904
522.05
546.363
532.379
549.666
512.245
535.95
525.148
553.08
555.974
564.132
562.799
350.215
373.081
380.431
416.225
514.497
537.478
509.32
542.832
551.626
512.951
537.054
558.977
539.798
518.033
548.149
546.871
519.89
562.483
550.931
543.172
556.395
548.472
527.942
552.467
551.752
562.139
536.135
535.982
542.058
522.024
549.736
546.452
558.417
530.928
528.145
549.394
546.055
558.222
478.921
484.347
499.273
499.275
495.951
481.624
481.621
483.544
472.156
484.808
506.21
469.544
502.137
487.149
476.883
458.067
462.783
493.473
455.249
488.99
480.657
527.344
529.655
536.747
547.432
525.214
533.056
540.82
529.812
550.111
536.602
544.694
535.4
543.43
530.824
527.341
529.654
536.738
547.405
525.209
533.039
540.797
529.814
550.1
536.583
544.701
535.39
543.419
530.821
545.525
536.952
522.092
539.868
529.828
532.5
553.085
545.497
536.968
522.073
539.901
529.791
532.484
553.32
508.881
504.793
524.395
505.378
518.932
502.488
524.196
533.472
511.898
513.468
508.494
529.268
527.628
509.779
536.805
524.561
511.025
533.149
516.39
524.812
545.641
518.327
541.241
525.166
534.429
504.449
513.231
519.091
523.486
514.285
494.387
511.844
500.965
520.827
494.664
546.783
543.288
541.047
527.104
532.866
530.427
521.888
547.404
543.018
532.894
531.762
539.458
521.886
419.22
444.146
448.34
494.553
524.829
502.167
515.408
474.076
469.3
480.652
492.941
468.118
489.661
476.685
474.058
469.296
480.618
492.933
468.109
489.613
476.676
476.728
457.16
478.525
483.214
463.77
466.906
494.271
469.826
442.107
455.871
468.575
448.847
459.392
480.457
421.949
444.736
448.495
446.386
422.766
442.585
421.108
403.136
410.622
425.618
435.896
578.883
586.957
595.469
578.572
586.77
595.41
578.91
586.974
595.478
586.813
595.431
579.372
587.275
595.592
579.439
587.325
595.612
578.129
586.523
595.336
578.001
586.461
595.323
577.469
586.095
595.184
577.936
586.399
595.29
577.611
586.22
595.241
577.751
586.267
595.224
577.314
585.976
595.115
577.778
586.241
595.196
577.354
586.016
595.13
581.555
588.625
596.061
577.977
586.405
595.28
578.326
586.669
595.398
578.07
586.426
595.272
578.334
586.648
595.38
580.161
587.733
595.724
578.247
586.593
595.345
581.063
588.33
595.955
580.148
587.726
595.725
578.463
586.726
595.398
581.202
588.428
596.001
580.477
587.938
595.803
581.378
588.491
595.999
581.844
588.78
596.118
581.597
588.617
596.045
582.205
589.059
596.24
577.063
585.846
595.088
576.92
585.773
595.079
574.58
584.365
594.589
574.724
584.445
594.621
575.457
584.882
594.771
574.715
584.421
594.59
576.911
585.795
595.073
575.357
584.814
594.739
577.075
585.872
595.097
577.193
585.942
595.142
595.074
574.486
584.223
594.532
574.17
584.166
594.544
575.756
585.058
594.857
574.398
584.182
594.524
594.253
576.668
585.564
594.981
576.114
585.245
594.874
576.547
585.547
594.995
576.598
585.528
594.967
576.132
585.281
594.895
576.439
585.446
594.937
575.611
584.998
594.798
575.638
585.024
594.811
577.266
586.017
595.16
575.631
585.031
594.814
575.691
585.102
594.856
578.668
586.836
595.431
578.349
586.645
595.372
578.617
586.794
595.416
586.66
595.378
579.336
587.237
595.567
579.778
587.508
595.655
579.651
587.457
595.656
579.109
587.103
595.526
579.987
587.636
595.709
579.452
587.322
595.603
579.816
587.536
595.665
579.635
587.441
595.649
579.25
587.212
595.573
579.958
587.632
595.712
577.351
586.018
595.147
576.674
585.609
594.998
577.63
586.211
595.229
577.891
586.382
595.29
576.949
585.784
595.076
577.023
585.881
595.118
576.487
585.575
595.016
578.52
586.741
595.408
576.843
585.69
595.041
577.044
585.877
595.107
576.816
585.771
595.089
578.524
586.743
595.408
577.108
585.91
595.144
575.598
584.946
594.786
574.863
584.508
594.639
574.784
584.473
594.634
576.311
585.353
594.929
576.306
585.345
594.92
576.118
585.249
594.888
576.172
585.299
594.911
578.267
586.584
595.338
577.9
586.351
595.259
578.298
586.611
595.353
577.872
586.328
595.25
581.365
588.493
596.003
581.348
588.476
595.994
581.158
588.329
595.922
581.06
588.31
595.929
581.105
588.355
595.943
581.076
588.315
595.926
581.103
588.345
595.937
579.817
587.515
595.658
579.89
587.578
595.679
579.885
587.58
595.683
579.148
587.145
595.535
579.176
587.165
595.546
578.655
586.83
595.44
578.775
586.938
595.482
578.833
586.917
595.463
578.811
586.948
595.473
578.785
586.921
595.481
578.877
586.998
595.503
578.959
587.01
595.508
578.901
587.01
595.5
578.924
586.997
595.494
578.707
586.872
595.439
578.754
586.904
595.454
580.925
588.239
595.943
580.853
588.212
595.943
580.632
588.075
595.888
580.209
587.782
595.761
580.61
588.056
595.859
580.085
587.748
595.767
579.99
587.624
595.685
580.036
587.653
595.7
579.098
587.081
595.503
579.658
587.481
595.684
579.555
587.446
595.664
578.746
586.874
595.434
579.655
587.455
595.668
579.974
587.651
595.737
580.264
587.796
595.745
580.819
588.14
595.868
580.299
587.819
595.755
580.552
588.01
595.851
580.58
588.017
595.858
580.321
587.811
595.755
580.095
587.715
595.736
580.545
588.001
595.837
580.021
587.693
595.743
580.036
587.629
595.68
580.012
587.654
595.708
579.344
587.252
595.579
579.682
587.488
595.68
579.653
587.487
595.672
578.978
587.052
595.513
579.635
587.435
595.655
579.776
587.543
595.698
580.184
587.728
595.71
580.828
588.137
595.861
580.312
587.822
595.754
582.058
588.98
596.223
580.985
588.335
595.983
580.939
588.305
595.971
581.973
588.869
596.165
581.883
588.783
596.122
581.474
588.538
596.012
581.694
588.692
596.08
581.397
588.497
595.994
581.641
588.657
596.068
574.214
584.101
594.48
574.67
584.37
594.569
574.595
584.326
594.55
574.94
584.591
594.661
576.724
585.64
595.031
576.414
585.477
594.969
576.242
585.318
594.908
575.63
584.995
594.8
574.202
584.131
594.502
573.587
583.66
594.315
575.881
585.099
594.833
574.689
584.373
594.57
575.688
585.015
594.813
575.131
584.659
594.674
574.298
584.108
594.451
575.158
584.643
594.668
575.849
585.057
594.818
576.865
585.725
595.075
576.075
585.171
594.841
576.127
585.329
594.935
576.038
585.155
594.821
576.16
585.255
594.865
577.136
585.869
595.092
577.024
585.82
595.094
576.569
585.619
595.026
577.461
586.101
595.173
577.402
586.02
595.155
576.822
585.712
595.068
575.082
584.606
594.636
575.46
584.833
594.71
575.493
584.875
594.738
586.002
595.182
585.625
595.042
594.61
574.616
584.369
594.595
584.832
594.746
573.704
583.777
594.362
585.247
594.893
572.912
583.271
594.174
572.924
583.305
594.197
572.527
583.05
594.115
572.564
583.085
594.136
572.131
582.808
594.011
572.172
582.864
594.033
573.781
583.914
594.446
574.221
584.062
594.481
575.217
584.692
594.715
574.749
584.391
594.598
573.477
583.659
594.344
573.541
583.676
594.34
573.056
583.402
594.24
573.366
583.517
594.275
574.216
584.09
594.495
573.016
583.368
594.222
572.641
583.097
594.121
572.748
583.172
594.151
572.555
583.059
594.109
573.968
583.957
594.435
574.34
584.19
594.556
573.11
583.478
594.286
573.63
583.59
594.299
573.096
583.324
594.227
575.091
584.619
594.671
573.917
583.823
594.367
571.158
582.226
593.805
571.843
582.716
594.033
572.129
582.697
593.965
572.884
583.26
594.2
572.086
582.776
594.027
582.815
594.047
571.401
582.335
593.857
571.284
582.231
593.793
573.213
583.514
594.323
573.27
583.581
594.364
572.317
582.925
594.112
572.458
583.032
594.12
571.973
582.725
594.011
572.065
582.758
594.02
421.685
530.23
411
440.174
414.204
444.458
451.16
486.79
466.08
477.015
482.832
432.303
398.487
405.559
542.998
555.526
537.772
512.121
558.664
524.438
548.223
550.522
508.247
542.753
513.578
536.871
546.628
519.398
517.41
514.761
500.835
493.217
582.385
593.894
571.335
571.188
582.207
571.17
572.34
571.407
582.335
361.187
363.072
367.22
371.821
374.82
360.363
362.75
368.064
373.962
377.802
359.121
361.414
367.82
375.186
380.729
357.548
360.625
368.906
378.8
386.067
355.395
359.555
370.674
383.97
393.647
352.394
358.188
373.408
391.687
404.963
348.132
356.273
377.481
403.395
422.766
342.078
353.259
382.961
421.79
453.509
333.778
347.914
388.415
451.099
501.846
323.404
338.505
388.028
474.51
537.73
361.176
361.588
361.498
360.842
360.83
361.271
361.172
360.348
360.859
360.744
359.774
359.751
360.299
360.164
359.088
359.705
359.525
358.392
358.355
359.063
358.858
357.505
358.314
358.077
356.558
356.507
357.443
357.168
355.334
356.435
356.11
354.023
353.952
355.254
354.871
352.312
353.859
353.41
350.452
350.358
352.206
351.678
348.023
350.242
349.618
345.36
345.235
347.894
347.156
341.935
345.057
344.192
338.227
338.068
341.633
340.645
333.607
337.539
336.453
328.784
328.611
332.762
331.629
323.242
327.358
326.251
361.016
364.238
363.633
361.068
360.622
364.25
363.569
367.029
371.665
370.731
368.272
367.38
372.642
371.578
374.286
378.517
377.35
376.858
375.673
380.521
379.224
379.48
382.028
380.734
383.188
381.817
384.603
383.192
360.114
364.287
363.504
360.117
359.525
364.352
363.452
367.886
373.936
372.713
369.691
368.528
375.516
374.115
377.422
382.991
381.5
381.133
379.544
385.957
384.237
384.499
387.681
386.071
389.503
387.697
391.358
389.507
358.859
364.472
363.436
358.921
358.098
364.668
363.446
369.338
377.448
375.842
371.894
370.331
379.807
377.936
382.146
389.549
387.569
387.438
385.311
393.944
391.635
391.561
395.791
393.65
398.709
396.283
401.199
398.711
357.219
364.939
363.489
357.322
356.184
365.275
363.558
371.561
382.695
380.489
375.262
373.062
386.224
383.599
389.174
399.356
396.622
396.912
393.915
406.083
402.794
402.092
407.901
404.967
412.786
409.327
416.325
412.792
354.941
365.632
363.619
354.964
353.406
365.973
363.622
374.859
390.536
387.388
380.078
376.932
395.815
391.967
399.776
414.559
410.542
411.527
407.049
425.44
420.399
418.506
427.142
422.772
435.831
430.403
441.431
435.839
351.442
366.146
363.387
350.993
348.899
365.981
362.65
379.172
402.164
397.4
385.926
381.362
409.611
403.655
416.1
439.697
433.11
434.809
427.361
458.896
449.779
446.219
461.088
453.519
483.79
467.81
502.606
483.812
345.591
364.836
361.074
343.841
341.37
362.432
358.288
382.86
417.892
410.42
389.612
383.247
426.202
416.709
441.171
488.153
469.182
466.558
446.151
567.59
519.091
481.272
525.932
501.876
540.023
336.037
357.896
353.541
380.631
421.953
419.498
483.916
537.937
553.542
543.463
498.167
513.499
524.239
509.562
519.737
551.487
508.892
470.116
506.991
481.164
501.712
476.237
535.243
567.248
499.487
527.456
522.354
563.408
522.878
517.377
503.695
548.826
521.68
521.689
567.322
517.518
560.349
560.282
543.481
498.174
513.513
524.284
509.595
519.721
551.442
561.825
540.118
532.705
567.851
556.875
517.84
568.233
568.082
527.098
527.136
565.857
573.396
573.445
561.896
540.136
532.737
567.728
563.414
553.848
531.653
523.118
557.869
528.5
505.828
567.278
559.619
516.523
507.179
317.924
317.781
321.502
320.506
512.011
484.027
478.618
544.427
514.354
454.247
468.291
487.246
557.718
563.714
535.623
563.81
510.499
538.685
556.088
554.375
566.888
555.031
553.28
539.796
491.139
499.324
492.609
557.308
479.233
513.144
507.138
524.215
491.117
491.135
497.973
502.096
510.591
510.59
568.358
567.752
568.509
567.794
557.261
555.087
466.716
500.049
453.621
450.36
461.809
476.887
491.201
565.895
565.261
549.851
565.277
565.143
561.409
559.12
563.124
554.857
536.036
565.523
549.377
547.352
532.858
552.868
551.063
541.828
534.162
555.232
555.329
537.958
537.994
560.545
546.818
549.469
566.27
566.275
565.322
548.153
548.159
544.237
558.799
541.8
563.828
540.493
562.611
545.535
544.242
558.796
541.778
563.875
540.504
562.585
545.547
572.633
554.374
564.931
559.41
569.013
567.855
556.283
539.003
554.298
552.582
555.242
568.495
562.593
566.502
571.28