/*--------------------------------*- C++ -*----------------------------------*\
| =========                 |                                                 |
| \\      /  F ield         | OpenFOAM: The Open Source CFD Toolbox           |
|  \\    /   O peration     | Version:  2.3.1                                 |
|   \\  /    A nd           | Web:      www.OpenFOAM.org                      |
|    \\/     M anipulation  |                                                 |
\*---------------------------------------------------------------------------*/
FoamFile
{
    version     2.0;
    format      ascii;
    class       volVectorField;
    location    "40/fluid";
    object      U_0;
}
// * * * * * * * * * * * * * * * * * * * * * * * * * * * * * * * * * * * * * //

dimensions      [0 1 -1 0 0 0 0];

internalField   nonuniform List<vector> 
25373
(
(0.0377909 0.0511373 -0.961756)
(0.0236405 0.053823 -0.95111)
(0.0512097 0.0377331 -0.961783)
(0.042648 0.0425747 -0.944829)
(0.0302866 0.0480996 -0.925156)
(0.0538924 0.0235954 -0.951135)
(0.0481557 0.0302353 -0.925154)
(0.03243 0.0323839 -0.89283)
(0.0599665 0.00779626 -0.960009)
(0.0571406 0.00877713 -0.944329)
(0.0508444 0.010344 -0.910437)
(0.0345036 0.0118448 -0.871401)
(0.0480232 0.0641677 -0.943983)
(0.0355928 0.0742469 -0.91921)
(0.0642607 0.0479548 -0.944018)
(0.0582395 0.0581577 -0.908294)
(0.0391795 0.0639597 -0.8766)
(0.0743363 0.0355219 -0.919323)
(0.0640439 0.0391183 -0.876637)
(0.0450659 0.0450087 -0.82846)
(0.0756447 0.00995436 -0.942809)
(0.0794857 0.0111389 -0.907217)
(0.068363 0.014223 -0.853909)
(0.0478306 0.0158283 -0.797186)
(0.0474028 0.0652279 -0.929789)
(0.033533 0.0699512 -0.921666)
(0.0653527 0.0473289 -0.929818)
(0.0563586 0.0562645 -0.912251)
(0.0414165 0.0649669 -0.879751)
(0.0700946 0.0334493 -0.921739)
(0.0650644 0.0413473 -0.879783)
(0.0484083 0.048345 -0.826686)
(0.0775876 0.0104223 -0.927917)
(0.0779975 0.0145821 -0.908088)
(0.0713848 0.0185992 -0.851893)
(0.0532288 0.0219406 -0.786507)
(0.0528142 0.072143 -0.912753)
(0.0382917 0.0791362 -0.902021)
(0.0722726 0.0527292 -0.912779)
(0.0636777 0.0635773 -0.889592)
(0.0473467 0.0734209 -0.849889)
(0.0793054 0.0381596 -0.902104)
(0.0735395 0.0472558 -0.849926)
(0.0558849 0.0558132 -0.7827)
(0.0865439 0.0118173 -0.911381)
(0.0870288 0.0169866 -0.885464)
(0.0807688 0.0221182 -0.814717)
(0.0614606 0.0262994 -0.731114)
(0.0560876 0.0766426 -0.895341)
(0.0413955 0.0858378 -0.882186)
(0.0767576 0.0560076 -0.895368)
(0.0687856 0.0686798 -0.866412)
(0.0521002 0.0808551 -0.817837)
(0.0859971 0.0412936 -0.882197)
(0.0809707 0.0519952 -0.817885)
(0.0630171 0.0629394 -0.734713)
(0.0926022 0.0128944 -0.894201)
(0.0943813 0.0188048 -0.861589)
(0.0898686 0.0248343 -0.774754)
(0.0704694 0.0304259 -0.670439)
(0.0541124 0.0741141 -0.879337)
(0.0407798 0.0854035 -0.863852)
(0.0742095 0.0540422 -0.879343)
(0.0685246 0.0684282 -0.8451)
(0.0539213 0.08403 -0.787691)
(0.0855497 0.0406961 -0.863727)
(0.0841313 0.0538355 -0.787694)
(0.069094 0.0690231 -0.685453)
(0.0904967 0.0127395 -0.878284)
(0.0950363 0.0191967 -0.839307)
(0.0960923 0.0266448 -0.735053)
(0.0799906 0.0346192 -0.604355)
(0.0437541 0.0597046 -0.867718)
(0.0341899 0.0724948 -0.850852)
(0.0597982 0.0436699 -0.867741)
(0.0592111 0.0591463 -0.831587)
(0.0505676 0.0790419 -0.76719)
(0.072611 0.0340733 -0.850685)
(0.079123 0.050549 -0.767137)
(0.0729919 0.0729723 -0.642101)
(0.0738877 0.0103149 -0.866612)
(0.0833958 0.0171617 -0.824705)
(0.0963055 0.0269757 -0.703929)
(0.0899872 0.0389949 -0.536851)
(0.023874 0.0320755 -0.865754)
(0.020958 0.0455871 -0.850356)
(0.0321911 0.0238177 -0.865764)
(0.0378572 0.0378042 -0.83287)
(0.039706 0.0625082 -0.764617)
(0.0457056 0.0208937 -0.850335)
(0.0626067 0.0396922 -0.764485)
(0.0719637 0.0720006 -0.616064)
(0.0417895 0.00606103 -0.864397)
(0.0555923 0.0120163 -0.825161)
(0.08579 0.0241179 -0.692306)
(0.0995399 0.0434847 -0.474587)
(-0.0153788 -0.02198 -0.876228)
(-0.00722394 -0.0129049 -0.867059)
(-0.0218918 -0.0154714 -0.87623)
(-0.00591188 -0.00599411 -0.855576)
(0.0117044 0.0183141 -0.796468)
(-0.0128155 -0.00732415 -0.867042)
(0.0184163 0.0116649 -0.796437)
(0.055626 0.055656 -0.628158)
(-0.0234981 -0.00315582 -0.874483)
(-0.00376675 3.91696e-05 -0.848593)
(0.0473289 0.0142036 -0.719033)
(0.0959446 0.0450323 -0.434237)
(-0.056296 -0.0775817 -0.899401)
(-0.0386804 -0.0788822 -0.899342)
(-0.0774636 -0.0563852 -0.899403)
(-0.0594078 -0.0595289 -0.895843)
(-0.0328342 -0.0512382 -0.857352)
(-0.0788104 -0.0387681 -0.899323)
(-0.0511161 -0.0329438 -0.857264)
(-0.00164978 -0.00163511 -0.701017)
(-0.0925392 -0.0131906 -0.897501)
(-0.0791256 -0.015393 -0.891333)
(-0.0322665 -0.00695735 -0.78935)
(0.0384555 0.0140319 -0.492062)
(0.0293636 0.0520058 -0.960278)
(0.0315984 0.0582617 -0.948716)
(0.0141124 0.0554192 -0.960073)
(0.0227274 0.0529523 -0.96057)
(0.0164527 0.0529863 -0.961195)
(0.0163535 0.060618 -0.947834)
(0.0248355 0.0597832 -0.94851)
(0.0186215 0.0584452 -0.947609)
(0.0415316 0.0480427 -0.961506)
(0.0481153 0.0414697 -0.961524)
(0.0444394 0.0443737 -0.961724)
(0.0455364 0.0524945 -0.949339)
(0.0525759 0.0454646 -0.949357)
(0.0485579 0.0484813 -0.94854)
(0.0317726 0.0508766 -0.96118)
(0.0408028 0.0463181 -0.959955)
(0.0335465 0.0474259 -0.958782)
(0.0413746 0.0561055 -0.948533)
(0.0351489 0.0563951 -0.947283)
(0.044714 0.0512018 -0.944538)
(0.0379122 0.0535597 -0.940996)
(0.0520627 0.0293146 -0.960317)
(0.0583215 0.0315362 -0.948766)
(0.046392 0.0407397 -0.959968)
(0.0509446 0.0317207 -0.961208)
(0.0474982 0.0334875 -0.958805)
(0.056182 0.0413088 -0.948568)
(0.0512793 0.0446425 -0.944559)
(0.0564621 0.0350868 -0.947334)
(0.0536366 0.037842 -0.941037)
(0.0529967 0.022707 -0.960592)
(0.0554445 0.0140854 -0.960152)
(0.0530224 0.0164316 -0.961253)
(0.0598321 0.0247975 -0.948569)
(0.0606483 0.0163214 -0.947899)
(0.0584761 0.0185909 -0.947679)
(0.0563842 0.00977806 -0.959316)
(0.0620588 0.00280695 -0.960213)
(0.0581869 0.00328606 -0.959309)
(0.065072 0.00886574 -0.947599)
(0.0622492 0.0107338 -0.945002)
(0.0671388 0.00321768 -0.94749)
(0.0641131 0.00378033 -0.944004)
(0.0381745 0.0679971 -0.942907)
(0.0370324 0.0677056 -0.935008)
(0.01831 0.0716429 -0.942642)
(0.0298629 0.0721003 -0.941447)
(0.022256 0.0717933 -0.940762)
(0.0188838 0.0716956 -0.935199)
(0.0294561 0.0712301 -0.934042)
(0.0224258 0.071453 -0.9334)
(0.0522038 0.0592869 -0.944865)
(0.0593806 0.0521291 -0.944884)
(0.056251 0.0561681 -0.943548)
(0.0517444 0.0596909 -0.937699)
(0.0597952 0.0516669 -0.937717)
(0.0560794 0.0559899 -0.936425)
(0.0437542 0.0666137 -0.941116)
(0.0526362 0.06177 -0.937698)
(0.0477307 0.0656815 -0.931106)
(0.0474295 0.064388 -0.937702)
(0.0423535 0.0664478 -0.934649)
(0.0526422 0.0609366 -0.931844)
(0.0478838 0.0658691 -0.923778)
(0.0680691 0.0381173 -0.942964)
(0.0678206 0.0369594 -0.935081)
(0.0618552 0.0525614 -0.937719)
(0.0666863 0.0436827 -0.941178)
(0.0657644 0.0476485 -0.931159)
(0.0644996 0.0473587 -0.937736)
(0.0610332 0.0525619 -0.931866)
(0.0665558 0.0422821 -0.934711)
(0.0659688 0.0478051 -0.923828)
(0.0721723 0.0298209 -0.941508)
(0.0717357 0.0182654 -0.94271)
(0.0718751 0.0222101 -0.94084)
(0.0713471 0.0293835 -0.934124)
(0.071798 0.0188183 -0.935277)
(0.0715534 0.0223534 -0.933487)
(0.0760036 0.0129278 -0.937701)
(0.0773874 0.00360171 -0.942831)
(0.0781164 0.00418483 -0.936565)
(0.0756413 0.0104068 -0.935561)
(0.0754132 0.0130231 -0.931077)
(0.0777112 0.003776 -0.935629)
(0.0777936 0.00433124 -0.929787)
(0.0363003 0.0669864 -0.928915)
(0.0389577 0.0719729 -0.92081)
(0.018698 0.0734392 -0.927905)
(0.029484 0.0684217 -0.928452)
(0.0223231 0.0716364 -0.926508)
(0.0199857 0.078376 -0.919463)
(0.0312584 0.0755709 -0.919789)
(0.0237915 0.0772489 -0.917896)
(0.0517898 0.0611743 -0.930352)
(0.0612853 0.0517101 -0.930366)
(0.0566001 0.0565083 -0.929257)
(0.0554726 0.0643862 -0.921713)
(0.0645013 0.0553862 -0.921725)
(0.0602028 0.0601047 -0.920576)
(0.0405818 0.0663908 -0.927776)
(0.0538011 0.058954 -0.92409)
(0.0470685 0.0646656 -0.91506)
(0.0504439 0.0689334 -0.92062)
(0.0442258 0.0705937 -0.918533)
(0.0563734 0.06476 -0.913889)
(0.0493184 0.0693053 -0.905088)
(0.0671293 0.0362188 -0.928978)
(0.0721183 0.0388756 -0.920878)
(0.0590541 0.0537195 -0.92411)
(0.0665242 0.0405106 -0.927828)
(0.0647759 0.0469971 -0.915105)
(0.0690601 0.0503624 -0.920648)
(0.0648654 0.0562852 -0.913911)
(0.0707303 0.0441422 -0.918587)
(0.0694262 0.0492342 -0.905139)
(0.0685747 0.0293854 -0.928524)
(0.0735638 0.0186076 -0.927987)
(0.0717688 0.0222116 -0.926594)
(0.0757266 0.0311626 -0.91987)
(0.0785082 0.0199098 -0.91957)
(0.0773908 0.0236894 -0.918004)
(0.0748414 0.0131505 -0.923523)
(0.0803647 0.00381563 -0.927894)
(0.0777649 0.00459248 -0.921846)
(0.0825156 0.0111809 -0.919235)
(0.0814766 0.0139938 -0.913943)
(0.085094 0.00399181 -0.919168)
(0.0841192 0.00474952 -0.912218)
(0.0408056 0.0754763 -0.912843)
(0.0425477 0.0791338 -0.904077)
(0.0210017 0.0823178 -0.911627)
(0.0328311 0.0792981 -0.91197)
(0.0250592 0.0811549 -0.909832)
(0.0220359 0.0860915 -0.902898)
(0.0343283 0.0835485 -0.903077)
(0.0263777 0.0852865 -0.900768)
(0.0580549 0.0674267 -0.913704)
(0.0675434 0.0579656 -0.913715)
(0.0630878 0.062987 -0.912266)
(0.0605632 0.0699506 -0.904813)
(0.0700635 0.0604765 -0.904825)
(0.0657871 0.065686 -0.903119)
(0.0463279 0.0740983 -0.910315)
(0.0591543 0.0679232 -0.905021)
(0.0517825 0.0729123 -0.894542)
(0.0549619 0.0750518 -0.903694)
(0.0485237 0.0776396 -0.900956)
(0.0615159 0.071413 -0.894785)
(0.054052 0.0767708 -0.883119)
(0.0756321 0.0407201 -0.912909)
(0.0792875 0.0424686 -0.90413)
(0.0680319 0.0590606 -0.905044)
(0.0742434 0.046235 -0.910366)
(0.0730401 0.051688 -0.894592)
(0.0751781 0.0548777 -0.903724)
(0.071523 0.0614211 -0.894821)
(0.0777808 0.0484286 -0.901012)
(0.0769014 0.0539582 -0.883191)
(0.0794719 0.0327193 -0.912039)
(0.0824806 0.0209279 -0.911679)
(0.0813205 0.0249506 -0.909889)
(0.083737 0.0342333 -0.903114)
(0.0863129 0.0220151 -0.902891)
(0.0855243 0.0263422 -0.90072)
(0.0856213 0.0148021 -0.905486)
(0.0891434 0.00421994 -0.911206)
(0.088315 0.00504334 -0.903375)
(0.0903239 0.0124819 -0.902501)
(0.0901483 0.0157164 -0.895581)
(0.0927438 0.00445073 -0.902251)
(0.0927598 0.00529696 -0.893174)
(0.043443 0.081142 -0.895698)
(0.0433738 0.0814384 -0.887445)
(0.022605 0.0884852 -0.894662)
(0.0351492 0.0858136 -0.894642)
(0.0272137 0.0879256 -0.892155)
(0.0226747 0.0891158 -0.886457)
(0.0352076 0.0863375 -0.886267)
(0.0275301 0.088945 -0.883543)
(0.0618178 0.0713494 -0.896483)
(0.0714544 0.0617352 -0.896496)
(0.0673367 0.0672363 -0.894465)
(0.061701 0.0711539 -0.888191)
(0.0712496 0.0616288 -0.888204)
(0.0674837 0.0673969 -0.885852)
(0.0497177 0.0797936 -0.892209)
(0.0630058 0.0733641 -0.885294)
(0.0555402 0.0792407 -0.872205)
(0.0559632 0.0765669 -0.886919)
(0.0499087 0.0803591 -0.883457)
(0.0632172 0.0739194 -0.875737)
(0.055995 0.0803337 -0.861431)
(0.0812862 0.043374 -0.895747)
(0.0815845 0.0433027 -0.887491)
(0.073471 0.0629031 -0.885326)
(0.0799227 0.0496358 -0.892255)
(0.0793661 0.0554406 -0.87227)
(0.0766782 0.0558942 -0.886942)
(0.0740175 0.063131 -0.875753)
(0.0804942 0.0498373 -0.883489)
(0.080456 0.0559095 -0.861474)
(0.0859938 0.035064 -0.894656)
(0.0886901 0.0225726 -0.89463)
(0.0881641 0.0271941 -0.892048)
(0.0865032 0.0351234 -0.886257)
(0.0892769 0.0226214 -0.886402)
(0.0891623 0.0275198 -0.883387)
(0.0929522 0.0163615 -0.88629)
(0.0948212 0.00460729 -0.893858)
(0.0954799 0.00551442 -0.883534)
(0.0929653 0.0130256 -0.885864)
(0.0940619 0.01673 -0.876917)
(0.0948601 0.00465588 -0.885416)
(0.0964233 0.00563396 -0.87383)
(0.041919 0.0791865 -0.879961)
(0.0387088 0.0736566 -0.873724)
(0.0219879 0.0871429 -0.878998)
(0.0341451 0.0841347 -0.87864)
(0.0270377 0.0874476 -0.875693)
(0.020277 0.0816906 -0.872753)
(0.0316354 0.0784676 -0.872253)
(0.0254705 0.0825752 -0.869088)
(0.0596043 0.0687631 -0.88068)
(0.0688424 0.0595318 -0.88068)
(0.0656099 0.0655326 -0.878062)
(0.0550595 0.063568 -0.874441)
(0.0636185 0.0550058 -0.874436)
(0.0611211 0.0610729 -0.871568)
(0.0486297 0.0785608 -0.875555)
(0.0616486 0.072256 -0.867174)
(0.0549749 0.0792096 -0.851805)
(0.0500699 0.0685969 -0.873016)
(0.0454598 0.0736235 -0.868919)
(0.0576316 0.0677562 -0.860158)
(0.0519477 0.0752066 -0.844053)
(0.0793326 0.0418272 -0.879989)
(0.0738134 0.0385526 -0.873748)
(0.0723431 0.0615615 -0.867175)
(0.0787049 0.0485575 -0.875565)
(0.0793232 0.0548982 -0.851811)
(0.0686824 0.0500102 -0.873022)
(0.0678189 0.057573 -0.860157)
(0.0737942 0.0453657 -0.86893)
(0.0753211 0.0518985 -0.844074)
(0.0842766 0.034052 -0.878606)
(0.0872195 0.0218923 -0.878946)
(0.0876101 0.0270093 -0.875512)
(0.078571 0.0315021 -0.872222)
(0.081704 0.02017 -0.87274)
(0.0827037 0.025441 -0.868934)
(0.0924363 0.0166554 -0.868381)
(0.09193 0.00455925 -0.877761)
(0.0945165 0.00561281 -0.865026)
(0.0843703 0.0118745 -0.871832)
(0.0872526 0.015962 -0.861172)
(0.0851961 0.00425422 -0.871237)
(0.0889402 0.00537105 -0.857597)
(0.0337247 0.0644765 -0.868503)
(0.0262722 0.0511774 -0.866664)
(0.0172999 0.0721569 -0.867631)
(0.0276769 0.0688495 -0.86692)
(0.0227593 0.0738958 -0.863653)
(0.013318 0.0582899 -0.865674)
(0.0220261 0.0550837 -0.865016)
(0.0189064 0.061073 -0.861819)
(0.0478852 0.0553005 -0.869236)
(0.0553599 0.0478663 -0.869248)
(0.0539695 0.0539466 -0.86621)
(0.0374159 0.0433807 -0.867416)
(0.0434671 0.0374032 -0.867436)
(0.043549 0.0435044 -0.864644)
(0.0404157 0.0654697 -0.86341)
(0.0513498 0.0605351 -0.854679)
(0.047069 0.068376 -0.838326)
(0.0345248 0.0468682 -0.865975)
(0.0327461 0.0531842 -0.861957)
(0.0422191 0.0499307 -0.853835)
(0.0402441 0.0589801 -0.83735)
(0.0645937 0.033567 -0.868514)
(0.0512688 0.026222 -0.866659)
(0.0605698 0.0512626 -0.854726)
(0.0656181 0.0402872 -0.863444)
(0.0684953 0.0470064 -0.838451)
(0.0470065 0.0344964 -0.865998)
(0.0500547 0.0421807 -0.853863)
(0.0533638 0.0327125 -0.86196)
(0.0591079 0.0402053 -0.837405)
(0.0689219 0.0275437 -0.866876)
(0.0721467 0.0172473 -0.867646)
(0.0740139 0.0227504 -0.863563)
(0.0550628 0.0219087 -0.864982)
(0.0583173 0.0133184 -0.865668)
(0.0611383 0.0188415 -0.8618)
(0.0782313 0.0146329 -0.85558)
(0.0739994 0.00371731 -0.865985)
(0.0795505 0.00493173 -0.851883)
(0.059002 0.00826239 -0.86473)
(0.064963 0.0127156 -0.854392)
(0.0583323 0.00298149 -0.864126)
(0.0658359 0.00428031 -0.850759)
(0.0183619 0.035576 -0.866361)
(0.00272003 0.00679647 -0.868924)
(0.00909802 0.0419554 -0.865387)
(0.015654 0.038846 -0.864738)
(0.0139434 0.0452258 -0.861719)
(0.000861567 0.0108431 -0.868126)
(0.00319358 0.00842449 -0.867422)
(0.00470542 0.0150783 -0.864882)
(0.025601 0.0296497 -0.867131)
(0.0297319 0.025543 -0.867144)
(0.0307827 0.0307155 -0.864588)
(0.00356014 0.00448924 -0.869716)
(0.00456674 0.00347417 -0.869716)
(0.00767214 0.0075859 -0.867454)
(0.0235697 0.0383613 -0.861989)
(0.0303766 0.0361644 -0.854674)
(0.0292591 0.0430666 -0.839037)
(0.0042974 0.00522086 -0.868354)
(0.00672148 0.0111193 -0.864992)
(0.00954828 0.0118309 -0.858956)
(0.0123994 0.0188848 -0.84549)
(0.0356872 0.0183103 -0.86636)
(0.00687671 0.00263741 -0.868919)
(0.0362687 0.0303307 -0.854647)
(0.0385119 0.0235189 -0.861981)
(0.0432072 0.0292139 -0.838969)
(0.00530726 0.0042076 -0.868354)
(0.0119272 0.00945617 -0.858961)
(0.011208 0.00662185 -0.864992)
(0.019001 0.0123093 -0.84549)
(0.0389073 0.015581 -0.864755)
(0.0420324 0.00903705 -0.865387)
(0.0453182 0.0138521 -0.861742)
(0.00849787 0.00311035 -0.867415)
(0.0109688 0.000791104 -0.868101)
(0.0151786 0.00461833 -0.864869)
(0.0484647 0.0097192 -0.854855)
(0.0405143 0.00219365 -0.863864)
(0.0490168 0.0033268 -0.851391)
(0.00956038 0.00141964 -0.866982)
(0.0175099 0.00445026 -0.858765)
(0.00733933 0.000565148 -0.866509)
(0.0174218 0.00156292 -0.855731)
(-0.0127178 -0.0223005 -0.876291)
(-0.0291539 -0.0529161 -0.886069)
(-0.00709654 -0.0206908 -0.875266)
(-0.00935924 -0.0225023 -0.875176)
(-0.00491767 -0.0161494 -0.87329)
(-0.0157021 -0.0545377 -0.884982)
(-0.0227626 -0.0550702 -0.885451)
(-0.0154631 -0.0499896 -0.88433)
(-0.018097 -0.0205624 -0.876966)
(-0.0204827 -0.0181821 -0.87697)
(-0.0157713 -0.0158648 -0.875688)
(-0.0409985 -0.0469648 -0.886523)
(-0.046871 -0.0411003 -0.886533)
(-0.0408249 -0.0409409 -0.886201)
(-0.010598 -0.0170764 -0.873976)
(-0.0121113 -0.0135486 -0.870215)
(-0.00626225 -0.00806376 -0.859698)
(-0.0361213 -0.0503755 -0.886305)
(-0.029251 -0.0472224 -0.885314)
(-0.0355996 -0.0411862 -0.883947)
(-0.0272971 -0.0384775 -0.877097)
(-0.0222052 -0.0128106 -0.876284)
(-0.0528303 -0.0292591 -0.886054)
(-0.0134555 -0.0122142 -0.870217)
(-0.0169774 -0.010704 -0.873972)
(-0.00796107 -0.00636697 -0.859701)
(-0.0502822 -0.03623 -0.886313)
(-0.0410778 -0.0357348 -0.883944)
(-0.0471342 -0.0293738 -0.885312)
(-0.0383887 -0.0274365 -0.877098)
(-0.0224084 -0.00944218 -0.875164)
(-0.0205687 -0.00718563 -0.875246)
(-0.0160448 -0.0050059 -0.87327)
(-0.0549877 -0.0228521 -0.885432)
(-0.0544367 -0.015796 -0.884967)
(-0.0499153 -0.0155559 -0.884316)
(-0.0150189 -0.00132318 -0.869232)
(-0.0263276 -0.0010509 -0.874078)
(-0.015688 -0.000375696 -0.867063)
(-0.0584662 -0.008193 -0.884468)
(-0.0506263 -0.0078343 -0.882497)
(-0.0617164 -0.00287223 -0.884285)
(-0.0520196 -0.00258264 -0.881349)
(-0.0450259 -0.0824643 -0.898853)
(-0.0241305 -0.0877198 -0.897686)
(-0.0358528 -0.0866282 -0.8988)
(-0.0260497 -0.0837545 -0.898388)
(-0.0630293 -0.0723779 -0.89912)
(-0.072258 -0.0631291 -0.899125)
(-0.0653584 -0.0654882 -0.89978)
(-0.0476081 -0.0769783 -0.899658)
(-0.0590303 -0.0687395 -0.900522)
(-0.0489355 -0.0698265 -0.897358)
(-0.082387 -0.0451258 -0.89884)
(-0.0686087 -0.0591462 -0.900507)
(-0.0768928 -0.0477108 -0.89965)
(-0.0697287 -0.0490548 -0.897328)
(-0.0865538 -0.0359389 -0.898787)
(-0.0876217 -0.0242179 -0.897687)
(-0.0836816 -0.0261318 -0.898387)
(-0.0863967 -0.0145454 -0.898774)
(-0.0959463 -0.00470204 -0.897461)
(-0.0885585 -0.00487614 -0.898492)
(0.0248958 0.0758874 -0.914783)
(0.0400042 0.0669689 -0.904565)
(0.0296726 0.0722631 -0.89377)
(0.0364977 0.0751793 -0.909363)
(0.0270677 0.0794623 -0.902341)
(0.0408759 0.0729899 -0.891907)
(0.0307668 0.0769862 -0.880888)
(0.0491034 0.063357 -0.897395)
(0.063458 0.0490288 -0.89742)
(0.0557926 0.0557144 -0.876702)
(0.0605879 0.0604921 -0.897906)
(0.0535479 0.0655573 -0.882855)
(0.0656611 0.0534641 -0.882876)
(0.0587244 0.0586403 -0.862015)
(0.0317231 0.0703045 -0.865123)
(0.0474057 0.0576255 -0.854166)
(0.0361275 0.0627129 -0.834889)
(0.0448388 0.0694605 -0.861267)
(0.0341801 0.0735644 -0.845655)
(0.0492818 0.0625509 -0.834679)
(0.0376905 0.0664049 -0.815314)
(0.0670852 0.0399417 -0.904628)
(0.0760313 0.0247831 -0.91489)
(0.0723915 0.0295768 -0.893879)
(0.0753328 0.0363953 -0.909447)
(0.0731229 0.0407928 -0.891996)
(0.0796102 0.0269363 -0.902484)
(0.0771275 0.0306466 -0.881062)
(0.057703 0.0473382 -0.854178)
(0.070396 0.0316477 -0.865182)
(0.0627793 0.0360717 -0.834918)
(0.0695703 0.0447608 -0.861311)
(0.0626384 0.0492114 -0.8347)
(0.0736784 0.0340885 -0.845761)
(0.0664901 0.0376298 -0.815369)
(0.0374858 0.0528989 -0.804772)
(0.0529395 0.0374306 -0.804788)
(0.0406384 0.0406187 -0.778762)
(0.0527308 0.0526637 -0.800368)
(0.0404561 0.0558565 -0.777211)
(0.0559112 0.0404115 -0.777226)
(0.0427763 0.0427651 -0.751344)
(0.0739956 0.0182147 -0.883942)
(0.0807386 0.00555352 -0.904627)
(0.0763817 0.00661391 -0.878835)
(0.082548 0.0160482 -0.894208)
(0.0799459 0.0187488 -0.869416)
(0.0847264 0.00568961 -0.890471)
(0.0818471 0.00671397 -0.864023)
(0.0637752 0.0218546 -0.819415)
(0.0735512 0.00764627 -0.845568)
(0.0655594 0.00826721 -0.811272)
(0.0762337 0.020846 -0.829713)
(0.0688022 0.0230831 -0.796283)
(0.0778098 0.00762372 -0.822783)
(0.0701399 0.00833697 -0.78812)
(0.0413087 0.0243446 -0.759132)
(0.0549188 0.00886041 -0.777662)
(0.042374 0.00930532 -0.74903)
(0.0577877 0.0246844 -0.754672)
(0.044307 0.0261992 -0.726903)
(0.0588645 0.00900537 -0.745468)
(0.0451174 0.00945055 -0.716891)
(0.0285724 0.0836732 -0.893661)
(0.0429253 0.0771169 -0.88055)
(0.0324963 0.0813179 -0.866842)
(0.0402946 0.0832233 -0.891546)
(0.0300253 0.0876314 -0.882326)
(0.0448954 0.0815722 -0.867404)
(0.0339761 0.085842 -0.85228)
(0.0565092 0.0690286 -0.8712)
(0.0691378 0.0564206 -0.871221)
(0.0620636 0.0619754 -0.845061)
(0.0667931 0.0666957 -0.877336)
(0.0595686 0.0723804 -0.856784)
(0.0724873 0.059488 -0.856812)
(0.0653585 0.0652789 -0.82766)
(0.0361767 0.0778541 -0.830785)
(0.0521617 0.0662356 -0.817049)
(0.0400036 0.0703645 -0.792786)
(0.0500513 0.0775802 -0.833112)
(0.0381312 0.0821985 -0.811914)
(0.0551181 0.0703073 -0.796457)
(0.0421948 0.0746846 -0.769555)
(0.0772609 0.0428112 -0.880632)
(0.0838432 0.0284127 -0.893766)
(0.0814715 0.0323332 -0.866984)
(0.0833967 0.0401717 -0.891612)
(0.081717 0.0447865 -0.867489)
(0.0878245 0.0299224 -0.88228)
(0.0859953 0.0338531 -0.852319)
(0.0663294 0.0520872 -0.81706)
(0.0779833 0.0360587 -0.830878)
(0.07046 0.0399343 -0.79282)
(0.0776959 0.0499764 -0.833159)
(0.0703933 0.0550589 -0.796478)
(0.0823252 0.0380363 -0.812004)
(0.0747762 0.0421384 -0.769625)
(0.0429764 0.0593179 -0.753954)
(0.0593748 0.0429274 -0.753961)
(0.045615 0.0456086 -0.721539)
(0.0596086 0.0595533 -0.758217)
(0.0457457 0.0633811 -0.726131)
(0.0634229 0.0457207 -0.726141)
(0.0486659 0.0486868 -0.690021)
(0.0845372 0.0198028 -0.85484)
(0.0892451 0.00599739 -0.880873)
(0.086492 0.00708769 -0.848095)
(0.0912841 0.0180691 -0.87294)
(0.0894578 0.0209519 -0.838798)
(0.0934138 0.00624221 -0.867784)
(0.0914371 0.00730399 -0.8313)
(0.0729752 0.0245086 -0.773163)
(0.082472 0.00802575 -0.806117)
(0.0744343 0.00886776 -0.762854)
(0.0855931 0.0236432 -0.794185)
(0.0778045 0.0262681 -0.747846)
(0.0873998 0.00829839 -0.784609)
(0.0794124 0.00920498 -0.736409)
(0.0472579 0.027921 -0.69648)
(0.0626387 0.0095566 -0.71953)
(0.0481882 0.0101204 -0.683888)
(0.065993 0.0284978 -0.700701)
(0.0506332 0.0303259 -0.661892)
(0.0672979 0.00998358 -0.687693)
(0.0516504 0.0106009 -0.647744)
(0.0309583 0.0905605 -0.872008)
(0.0463289 0.0845649 -0.855114)
(0.0352019 0.0892876 -0.83821)
(0.0417127 0.0868562 -0.872535)
(0.0313338 0.0919259 -0.861436)
(0.047 0.0862286 -0.842835)
(0.0359169 0.0915113 -0.82435)
(0.0616836 0.0749626 -0.843424)
(0.0750757 0.0615872 -0.843454)
(0.0681195 0.0680246 -0.810634)
(0.0695831 0.0694889 -0.8551)
(0.062886 0.0764844 -0.829908)
(0.07659 0.0627983 -0.829941)
(0.0701396 0.0700559 -0.793744)
(0.0398475 0.0860428 -0.7941)
(0.0578113 0.0737987 -0.776527)
(0.0444553 0.0787905 -0.746103)
(0.0535106 0.0832253 -0.80196)
(0.0411657 0.0891349 -0.775832)
(0.0600691 0.0768142 -0.756116)
(0.0465042 0.0826436 -0.722273)
(0.0846974 0.0462164 -0.855169)
(0.0907404 0.0308813 -0.871812)
(0.0894199 0.0350844 -0.838117)
(0.0870147 0.0416263 -0.87247)
(0.0863626 0.0469076 -0.842833)
(0.0921023 0.0312802 -0.861096)
(0.0916592 0.0358381 -0.824082)
(0.0738977 0.0577203 -0.77655)
(0.0861598 0.039703 -0.794146)
(0.0789009 0.0443355 -0.74619)
(0.0833354 0.0534184 -0.801995)
(0.0768941 0.0599995 -0.756137)
(0.0892535 0.0410514 -0.775731)
(0.082731 0.0464105 -0.722301)
(0.0485722 0.0673571 -0.698337)
(0.0674299 0.048513 -0.698351)
(0.0519859 0.0519748 -0.657304)
(0.0662621 0.066207 -0.709691)
(0.0514325 0.0714391 -0.668879)
(0.0714978 0.0513983 -0.668894)
(0.0555278 0.0555187 -0.622621)
(0.0932276 0.0218558 -0.823272)
(0.0965265 0.00647729 -0.855777)
(0.0953273 0.00758488 -0.814823)
(0.0959327 0.0192655 -0.849849)
(0.0959182 0.0225319 -0.807726)
(0.0980926 0.00662021 -0.843432)
(0.0981976 0.007787 -0.798352)
(0.0824164 0.027812 -0.72233)
(0.0918794 0.00866328 -0.763985)
(0.0842613 0.00969192 -0.709401)
(0.0935576 0.0259025 -0.75427)
(0.0869213 0.0293837 -0.695747)
(0.0958504 0.00898759 -0.742246)
(0.0891067 0.0102039 -0.681203)
(0.0543233 0.0325868 -0.626328)
(0.0720086 0.0105766 -0.655688)
(0.0555254 0.0113076 -0.610212)
(0.0751813 0.0325422 -0.637613)
(0.0583612 0.0351299 -0.587716)
(0.0770401 0.0112727 -0.620869)
(0.0597634 0.0121358 -0.569356)
(0.0307974 0.0909253 -0.851879)
(0.0465427 0.0857199 -0.831879)
(0.035888 0.0917828 -0.811766)
(0.0382837 0.0806178 -0.856544)
(0.0291569 0.0866187 -0.843911)
(0.0446035 0.082404 -0.822964)
(0.0349013 0.0894279 -0.801332)
(0.0626551 0.076295 -0.817916)
(0.0764028 0.0625654 -0.81794)
(0.0709913 0.0708996 -0.778387)
(0.0650369 0.0649666 -0.837125)
(0.0605412 0.0738866 -0.808327)
(0.0739745 0.0604937 -0.808312)
(0.0702521 0.0701783 -0.765604)
(0.0419003 0.0909453 -0.758984)
(0.0616477 0.0788798 -0.737028)
(0.0482483 0.085866 -0.69932)
(0.0530083 0.0828225 -0.77578)
(0.0418492 0.0910194 -0.744282)
(0.0622632 0.079758 -0.720148)
(0.0495166 0.0882859 -0.678046)
(0.0858313 0.0464686 -0.831807)
(0.0910614 0.030741 -0.851469)
(0.0919072 0.0358396 -0.81138)
(0.0807502 0.038172 -0.856401)
(0.0825179 0.0445496 -0.82289)
(0.0867215 0.029105 -0.84352)
(0.0895598 0.0348807 -0.800948)
(0.078957 0.0615703 -0.737065)
(0.0910481 0.0418126 -0.758749)
(0.0859412 0.048134 -0.699328)
(0.0828909 0.0529677 -0.775719)
(0.0798094 0.0621995 -0.72012)
(0.091096 0.0418122 -0.74394)
(0.0883386 0.0494198 -0.677908)
(0.0542503 0.0753802 -0.639456)
(0.0754626 0.0541651 -0.639504)
(0.0592655 0.0592095 -0.586944)
(0.0714067 0.0713309 -0.662476)
(0.0569764 0.0792377 -0.610394)
(0.0793222 0.0568568 -0.610412)
(0.0632401 0.0631653 -0.550374)
(0.0966861 0.0227834 -0.793543)
(0.0972256 0.00661499 -0.832372)
(0.0992308 0.00788539 -0.783261)
(0.0909189 0.0185316 -0.830655)
(0.0949903 0.0225316 -0.781718)
(0.0931839 0.00639622 -0.823278)
(0.0979171 0.00781982 -0.77051)
(0.0909908 0.030764 -0.669738)
(0.0987739 0.00925243 -0.721678)
(0.0936387 0.010712 -0.653372)
(0.097127 0.0270257 -0.717687)
(0.0945447 0.0320073 -0.644623)
(0.100362 0.00941157 -0.702787)
(0.0978173 0.0111944 -0.626151)
(0.0627747 0.0377971 -0.547419)
(0.0822976 0.0120291 -0.585349)
(0.0645024 0.0130767 -0.526392)
(0.0849628 0.0367783 -0.570468)
(0.0676356 0.0407639 -0.505137)
(0.0878638 0.0128399 -0.548766)
(0.069814 0.0141775 -0.480888)
(0.0263311 0.0789293 -0.838031)
(0.0411562 0.0761186 -0.816754)
(0.0328135 0.0841375 -0.794084)
(0.0283148 0.0606619 -0.849686)
(0.0222833 0.0677353 -0.836887)
(0.0361304 0.0672515 -0.815185)
(0.0296403 0.0762039 -0.791708)
(0.0564352 0.0689517 -0.801823)
(0.0690323 0.056404 -0.801807)
(0.0675509 0.0675222 -0.756305)
(0.0509609 0.0508673 -0.830684)
(0.0503819 0.0616937 -0.799626)
(0.0618103 0.0503472 -0.799585)
(0.0627497 0.0626838 -0.752093)
(0.0409003 0.0889122 -0.73294)
(0.0617282 0.0790954 -0.706621)
(0.0501781 0.0895655 -0.659547)
(0.0464598 0.0726672 -0.763535)
(0.0386503 0.0838972 -0.726769)
(0.0595093 0.0762174 -0.698227)
(0.0499605 0.0891667 -0.645444)
(0.076245 0.0411073 -0.81671)
(0.0790015 0.026267 -0.837735)
(0.0842611 0.0327671 -0.793807)
(0.0607861 0.0282656 -0.84955)
(0.067347 0.0361031 -0.815097)
(0.06787 0.0222016 -0.836709)
(0.0763102 0.02957 -0.791489)
(0.0791248 0.06171 -0.706598)
(0.0889975 0.0408857 -0.732704)
(0.0896254 0.050143 -0.659474)
(0.0727472 0.0464494 -0.763453)
(0.076269 0.0594805 -0.698212)
(0.0839772 0.0386117 -0.72666)
(0.0892215 0.0499607 -0.645419)
(0.0595356 0.0828543 -0.582583)
(0.082895 0.0594484 -0.582658)
(0.0674643 0.0673745 -0.513281)
(0.0735907 0.0735416 -0.625836)
(0.0618809 0.08616 -0.557704)
(0.0862125 0.0618262 -0.55777)
(0.0720298 0.0719375 -0.476872)
(0.0902416 0.0215741 -0.773467)
(0.0857056 0.00596305 -0.817043)
(0.0936725 0.00754956 -0.761379)
(0.0730719 0.0151141 -0.823384)
(0.0824779 0.0198294 -0.77017)
(0.0754079 0.00530006 -0.8155)
(0.0862193 0.00702152 -0.75742)
(0.0973165 0.0329949 -0.621791)
(0.100259 0.00945585 -0.687389)
(0.101371 0.0115943 -0.600725)
(0.0927418 0.0260788 -0.695303)
(0.0989553 0.0337687 -0.602969)
(0.0976336 0.00923255 -0.676775)
(0.104087 0.0119977 -0.578818)
(0.0730577 0.0440366 -0.460983)
(0.0936941 0.0136687 -0.511923)
(0.075863 0.015402 -0.432884)
(0.0951401 0.0412398 -0.504545)
(0.0791811 0.0477228 -0.41572)
(0.0998161 0.0145483 -0.475454)
(0.0827953 0.0167953 -0.382748)
(0.0172285 0.052528 -0.837944)
(0.0279161 0.0518175 -0.817154)
(0.0241969 0.0619151 -0.79325)
(0.00715584 0.0170543 -0.855193)
(0.00718467 0.0237022 -0.844282)
(0.0147375 0.0275847 -0.826013)
(0.0149134 0.0384491 -0.80326)
(0.040094 0.0490403 -0.801998)
(0.0491367 0.0400937 -0.801899)
(0.0543558 0.0543409 -0.752959)
(0.0170805 0.016998 -0.84029)
(0.0233311 0.0286621 -0.812491)
(0.0287781 0.0232816 -0.81246)
(0.0389873 0.0389374 -0.764163)
(0.0344787 0.0755762 -0.725829)
(0.0548246 0.070439 -0.695776)
(0.0481311 0.0858061 -0.637966)
(0.0273979 0.0428982 -0.775679)
(0.0268554 0.0581229 -0.735014)
(0.0453368 0.0578194 -0.70317)
(0.0438659 0.0777273 -0.638822)
(0.0519531 0.02786 -0.817079)
(0.0526358 0.0171274 -0.83791)
(0.0620355 0.0241125 -0.793175)
(0.0171206 0.00704355 -0.855194)
(0.0276876 0.014647 -0.826009)
(0.0237682 0.00707983 -0.84428)
(0.0385385 0.0148159 -0.803258)
(0.0704675 0.0548543 -0.695646)
(0.0756484 0.0344061 -0.725772)
(0.0858507 0.0481288 -0.637893)
(0.043 0.0273457 -0.775594)
(0.0578986 0.0453738 -0.702996)
(0.0581842 0.0267511 -0.734979)
(0.0777976 0.0438582 -0.638676)
(0.0634378 0.0880951 -0.536935)
(0.0880932 0.0634676 -0.536858)
(0.0763118 0.0763378 -0.441292)
(0.066777 0.0667823 -0.614723)
(0.0626938 0.086818 -0.524083)
(0.0868605 0.0627324 -0.523846)
(0.0802115 0.0803552 -0.410302)
(0.0704766 0.0172972 -0.771234)
(0.0576703 0.00423513 -0.817386)
(0.0747771 0.0061429 -0.758067)
(0.0277789 0.00633784 -0.83291)
(0.046867 0.0116836 -0.781929)
(0.0300111 0.00236732 -0.825767)
(0.0517174 0.0043517 -0.768509)
(0.0980724 0.0335656 -0.589142)
(0.0916389 0.00873488 -0.672264)
(0.104596 0.0121376 -0.560751)
(0.0702688 0.0200214 -0.698907)
(0.0925903 0.0322175 -0.584287)
(0.0774033 0.00744361 -0.676745)
(0.100107 0.0118918 -0.552216)
(0.0855738 0.0516479 -0.368471)
(0.105625 0.0154665 -0.440413)
(0.0901941 0.018441 -0.329328)
(0.101861 0.0446979 -0.449269)
(0.092315 0.0557332 -0.324318)
(0.10976 0.0159901 -0.408721)
(0.0967867 0.0201362 -0.277035)
(-0.00337987 -0.00731596 -0.858264)
(-0.000396236 -0.000464597 -0.843069)
(0.00386502 0.00978322 -0.822356)
(-0.02294 -0.0457281 -0.881736)
(-0.015278 -0.0423334 -0.875538)