  # Source : cellZone bedOfSpheres
# Cells  : 12131
# Time	sum(V)	volAverage(T)
4.014062e+01	5.221114e-01	5.999312e+02
4.045312e+01	5.221114e-01	5.997669e+02
4.076562e+01	5.221114e-01	5.996020e+02
4.107812e+01	5.221114e-01	5.994369e+02
4.139062e+01	5.221114e-01	5.992717e+02
4.170312e+01	5.221114e-01	5.991066e+02
4.201562e+01	5.221114e-01	5.989415e+02
4.232812e+01	5.221114e-01	5.987765e+02
4.264062e+01	5.221114e-01	5.986116e+02
4.295312e+01	5.221114e-01	5.984467e+02
4.326562e+01	5.221114e-01	5.982820e+02
4.357812e+01	5.221114e-01	5.981174e+02
4.389062e+01	5.221114e-01	5.979529e+02
4.420312e+01	5.221114e-01	5.977886e+02
4.451562e+01	5.221114e-01	5.976243e+02
4.482812e+01	5.221114e-01	5.974602e+02
4.514062e+01	5.221114e-01	5.972962e+02
4.545312e+01	5.221114e-01	5.971324e+02
4.576562e+01	5.221114e-01	5.969687e+02
4.607812e+01	5.221114e-01	5.968051e+02
4.639062e+01	5.221114e-01	5.966416e+02
4.670312e+01	5.221114e-01	5.964783e+02
4.701562e+01	5.221114e-01	5.963152e+02
4.732812e+01	5.221114e-01	5.961521e+02
4.764062e+01	5.221114e-01	5.959892e+02
4.795312e+01	5.221114e-01	5.958264e+02
4.826562e+01	5.221114e-01	5.956638e+02
4.857812e+01	5.221114e-01	5.955013e+02
4.889062e+01	5.221114e-01	5.953389e+02
4.920312e+01	5.221114e-01	5.951767e+02
4.951562e+01	5.221114e-01	5.950146e+02
4.982812e+01	5.221114e-01	5.948526e+02
5.014062e+01	5.221114e-01	5.946908e+02
5.045312e+01	5.221114e-01	5.945291e+02
5.076562e+01	5.221114e-01	5.943675e+02
5.107812e+01	5.221114e-01	5.942060e+02
5.139062e+01	5.221114e-01	5.940447e+02
5.170312e+01	5.221114e-01	5.938835e+02
5.201562e+01	5.221114e-01	5.937225e+02
5.232812e+01	5.221114e-01	5.935615e+02
5.264062e+01	5.221114e-01	5.934007e+02
5.295312e+01	5.221114e-01	5.932400e+02
5.326562e+01	5.221114e-01	5.930795e+02
5.357812e+01	5.221114e-01	5.929190e+02
5.389062e+01	5.221114e-01	5.927587e+02
5.420312e+01	5.221114e-01	5.925985e+02
5.451562e+01	5.221114e-01	5.924384e+02
5.482812e+01	5.221114e-01	5.922785e+02
5.514062e+01	5.221114e-01	5.921187e+02
5.545312e+01	5.221114e-01	5.919590e+02
5.576562e+01	5.221114e-01	5.917994e+02
5.607812e+01	5.221114e-01	5.916399e+02
5.639062e+01	5.221114e-01	5.914805e+02
5.670312e+01	5.221114e-01	5.913213e+02
5.701562e+01	5.221114e-01	5.911622e+02
5.732812e+01	5.221114e-01	5.910032e+02
5.764062e+01	5.221114e-01	5.908443e+02
5.795312e+01	5.221114e-01	5.906855e+02
5.826562e+01	5.221114e-01	5.905269e+02
5.857812e+01	5.221114e-01	5.903683e+02
5.889062e+01	5.221114e-01	5.902099e+02
5.920312e+01	5.221114e-01	5.900516e+02
5.951562e+01	5.221114e-01	5.898934e+02
5.982812e+01	5.221114e-01	5.897353e+02
6.014062e+01	5.221114e-01	5.895773e+02
6.045312e+01	5.221114e-01	5.894195e+02
6.076562e+01	5.221114e-01	5.892617e+02
6.107812e+01	5.221114e-01	5.891041e+02
6.139062e+01	5.221114e-01	5.889466e+02
6.170312e+01	5.221114e-01	5.887891e+02
6.201562e+01	5.221114e-01	5.886318e+02
6.232812e+01	5.221114e-01	5.884746e+02
6.264062e+01	5.221114e-01	5.883175e+02
6.295312e+01	5.221114e-01	5.881605e+02
6.326562e+01	5.221114e-01	5.880036e+02
6.357812e+01	5.221114e-01	5.878469e+02
6.389062e+01	5.221114e-01	5.876902e+02
6.420312e+01	5.221114e-01	5.875336e+02
6.451562e+01	5.221114e-01	5.873772e+02
6.482812e+01	5.221114e-01	5.872208e+02
6.514062e+01	5.221114e-01	5.870646e+02
6.545312e+01	5.221114e-01	5.869084e+02
6.576562e+01	5.221114e-01	5.867524e+02
6.607812e+01	5.221114e-01	5.865964e+02
6.639062e+01	5.221114e-01	5.864406e+02
6.670312e+01	5.221114e-01	5.862849e+02
6.701562e+01	5.221114e-01	5.861292e+02
6.732812e+01	5.221114e-01	5.859737e+02
6.764062e+01	5.221114e-01	5.858183e+02
6.795312e+01	5.221114e-01	5.856630e+02
6.826562e+01	5.221114e-01	5.855078e+02
6.857812e+01	5.221114e-01	5.853526e+02
6.889062e+01	5.221114e-01	5.851976e+02
6.920312e+01	5.221114e-01	5.850427e+02
6.951562e+01	5.221114e-01	5.848879e+02
6.982812e+01	5.221114e-01	5.847332e+02
7.014062e+01	5.221114e-01	5.845785e+02
7.045312e+01	5.221114e-01	5.844240e+02
7.076562e+01	5.221114e-01	5.842696e+02
7.107812e+01	5.221114e-01	5.841153e+02
7.139062e+01	5.221114e-01	5.839611e+02
7.170312e+01	5.221114e-01	5.838069e+02
7.201562e+01	5.221114e-01	5.836529e+02
7.232812e+01	5.221114e-01	5.834990e+02
7.264062e+01	5.221114e-01	5.833451e+02
7.295312e+01	5.221114e-01	5.831914e+02
7.326562e+01	5.221114e-01	5.830378e+02
7.357812e+01	5.221114e-01	5.828842e+02
7.389062e+01	5.221114e-01	5.827308e+02
7.420312e+01	5.221114e-01	5.825774e+02
7.451562e+01	5.221114e-01	5.824242e+02
7.482812e+01	5.221114e-01	5.822710e+02
7.514062e+01	5.221114e-01	5.821179e+02
7.545312e+01	5.221114e-01	5.819650e+02
7.576562e+01	5.221114e-01	5.818121e+02
7.607812e+01	5.221114e-01	5.816593e+02
7.639062e+01	5.221114e-01	5.815066e+02
7.670312e+01	5.221114e-01	5.813541e+02
7.701562e+01	5.221114e-01	5.812016e+02
7.732812e+01	5.221114e-01	5.810492e+02
7.764062e+01	5.221114e-01	5.808968e+02
7.795312e+01	5.221114e-01	5.807446e+02
7.826562e+01	5.221114e-01	5.805925e+02
7.857812e+01	5.221114e-01	5.804405e+02
7.889062e+01	5.221114e-01	5.802885e+02
7.920312e+01	5.221114e-01	5.801367e+02
7.951562e+01	5.221114e-01	5.799849e+02
7.982812e+01	5.221114e-01	5.798333e+02
8.014062e+01	5.221114e-01	5.796817e+02
8.045312e+01	5.221114e-01	5.795302e+02
8.076562e+01	5.221114e-01	5.793788e+02
8.107812e+01	5.221114e-01	5.792276e+02
8.139062e+01	5.221114e-01	5.790764e+02
8.170312e+01	5.221114e-01	5.789252e+02
8.201562e+01	5.221114e-01	5.787742e+02
8.232812e+01	5.221114e-01	5.786233e+02
8.264062e+01	5.221114e-01	5.784725e+02
8.295312e+01	5.221114e-01	5.783217e+02
8.326562e+01	5.221114e-01	5.781711e+02
8.357812e+01	5.221114e-01	5.780205e+02
8.389062e+01	5.221114e-01	5.778701e+02
8.420312e+01	5.221114e-01	5.777197e+02
8.451562e+01	5.221114e-01	5.775694e+02
8.482812e+01	5.221114e-01	5.774192e+02
8.514062e+01	5.221114e-01	5.772691e+02
8.545312e+01	5.221114e-01	5.771191e+02
8.576562e+01	5.221114e-01	5.769692e+02
8.607812e+01	5.221114e-01	5.768193e+02
8.639062e+01	5.221114e-01	5.766696e+02
8.670312e+01	5.221114e-01	5.765199e+02
8.701562e+01	5.221114e-01	5.763704e+02
8.732812e+01	5.221114e-01	5.762209e+02
8.764062e+01	5.221114e-01	5.760715e+02
8.795312e+01	5.221114e-01	5.759222e+02
8.826562e+01	5.221114e-01	5.757730e+02
8.857812e+01	5.221114e-01	5.756239e+02
8.889062e+01	5.221114e-01	5.754748e+02
8.920312e+01	5.221114e-01	5.753259e+02
8.951562e+01	5.221114e-01	5.751770e+02
8.982812e+01	5.221114e-01	5.750282e+02
9.014062e+01	5.221114e-01	5.748795e+02
9.045312e+01	5.221114e-01	5.747309e+02
9.076562e+01	5.221114e-01	5.745824e+02
9.107812e+01	5.221114e-01	5.744340e+02
9.139062e+01	5.221114e-01	5.742856e+02
9.170312e+01	5.221114e-01	5.741374e+02
9.201562e+01	5.221114e-01	5.739892e+02
9.232812e+01	5.221114e-01	5.738411e+02
9.264062e+01	5.221114e-01	5.736931e+02
9.295312e+01	5.221114e-01	5.735452e+02
9.326562e+01	5.221114e-01	5.733973e+02
9.357812e+01	5.221114e-01	5.732496e+02
9.389062e+01	5.221114e-01	5.731019e+02
9.420312e+01	5.221114e-01	5.729543e+02
9.451562e+01	5.221114e-01	5.728068e+02
9.482812e+01	5.221114e-01	5.726594e+02
9.514062e+01	5.221114e-01	5.725121e+02
9.545312e+01	5.221114e-01	5.723649e+02
9.576562e+01	5.221114e-01	5.722177e+02
9.607812e+01	5.221114e-01	5.720706e+02
9.639062e+01	5.221114e-01	5.719237e+02
9.670312e+01	5.221114e-01	5.717767e+02
9.701562e+01	5.221114e-01	5.716299e+02
9.732812e+01	5.221114e-01	5.714832e+02
9.764062e+01	5.221114e-01	5.713365e+02
9.795312e+01	5.221114e-01	5.711900e+02
9.826562e+01	5.221114e-01	5.710435e+02
9.857812e+01	5.221114e-01	5.708971e+02
9.889062e+01	5.221114e-01	5.707508e+02
9.920312e+01	5.221114e-01	5.706045e+02
9.951562e+01	5.221114e-01	5.704584e+02
9.982812e+01	5.221114e-01	5.703123e+02
1.001406e+02	5.221114e-01	5.701663e+02
1.004531e+02	5.221114e-01	5.700204e+02
1.007656e+02	5.221114e-01	5.698746e+02
1.010781e+02	5.221114e-01	5.697288e+02
1.013906e+02	5.221114e-01	5.695832e+02
1.017031e+02	5.221114e-01	5.694376e+02
1.020156e+02	5.221114e-01	5.692921e+02
1.023281e+02	5.221114e-01	5.691467e+02
1.026406e+02	5.221114e-01	5.690014e+02
1.029531e+02	5.221114e-01	5.688561e+02
1.032656e+02	5.221114e-01	5.687110e+02
1.035781e+02	5.221114e-01	5.685659e+02
1.038906e+02	5.221114e-01	5.684209e+02
1.042031e+02	5.221114e-01	5.682760e+02
1.045156e+02	5.221114e-01	5.681311e+02
1.048281e+02	5.221114e-01	5.679864e+02
1.051406e+02	5.221114e-01	5.678417e+02
1.054531e+02	5.221114e-01	5.676971e+02
1.057656e+02	5.221114e-01	5.675526e+02
1.060781e+02	5.221114e-01	5.674081e+02
1.063906e+02	5.221114e-01	5.672638e+02
1.067031e+02	5.221114e-01	5.671195e+02
1.070156e+02	5.221114e-01	5.669753e+02
1.073281e+02	5.221114e-01	5.668312e+02
1.076406e+02	5.221114e-01	5.666872e+02
1.079531e+02	5.221114e-01	5.665432e+02
1.082656e+02	5.221114e-01	5.663994e+02
1.085781e+02	5.221114e-01	5.662556e+02
1.088906e+02	5.221114e-01	5.661119e+02
1.092031e+02	5.221114e-01	5.659682e+02
1.095156e+02	5.221114e-01	5.658247e+02
1.098281e+02	5.221114e-01	5.656812e+02
1.101406e+02	5.221114e-01	5.655378e+02
1.104531e+02	5.221114e-01	5.653945e+02
1.107656e+02	5.221114e-01	5.652513e+02
1.110781e+02	5.221114e-01	5.651081e+02
1.113906e+02	5.221114e-01	5.649651e+02
1.117031e+02	5.221114e-01	5.648221e+02
1.120156e+02	5.221114e-01	5.646792e+02
1.123281e+02	5.221114e-01	5.645363e+02
1.126406e+02	5.221114e-01	5.643936e+02
1.129531e+02	5.221114e-01	5.642509e+02
1.132656e+02	5.221114e-01	5.641083e+02
1.135781e+02	5.221114e-01	5.639658e+02
1.138906e+02	5.221114e-01	5.638233e+02
1.142031e+02	5.221114e-01	5.636810e+02
1.145156e+02	5.221114e-01	5.635387e+02
1.148281e+02	5.221114e-01	5.633965e+02
1.151406e+02	5.221114e-01	5.632544e+02
1.154531e+02	5.221114e-01	5.631123e+02
1.157656e+02	5.221114e-01	5.629704e+02
1.160781e+02	5.221114e-01	5.628285e+02
1.163906e+02	5.221114e-01	5.626867e+02
1.167031e+02	5.221114e-01	5.625449e+02
1.170156e+02	5.221114e-01	5.624033e+02
1.173281e+02	5.221114e-01	5.622617e+02
1.176406e+02	5.221114e-01	5.621202e+02
1.179531e+02	5.221114e-01	5.619788e+02
1.182656e+02	5.221114e-01	5.618375e+02
1.185781e+02	5.221114e-01	5.616962e+02
1.188906e+02	5.221114e-01	5.615550e+02
1.192031e+02	5.221114e-01	5.614139e+02
1.195156e+02	5.221114e-01	5.612729e+02
1.198281e+02	5.221114e-01	5.611319e+02
1.201406e+02	5.221114e-01	5.609910e+02
1.204531e+02	5.221114e-01	5.608502e+02
1.207656e+02	5.221114e-01	5.607095e+02
1.210781e+02	5.221114e-01	5.605689e+02
1.213906e+02	5.221114e-01	5.604283e+02
1.217031e+02	5.221114e-01	5.602878e+02
1.220156e+02	5.221114e-01	5.601474e+02
1.223281e+02	5.221114e-01	5.600071e+02
1.226406e+02	5.221114e-01	5.598668e+02
1.229531e+02	5.221114e-01	5.597266e+02
1.232656e+02	5.221114e-01	5.595865e+02
1.235781e+02	5.221114e-01	5.594465e+02
1.238906e+02	5.221114e-01	5.593066e+02
1.242031e+02	5.221114e-01	5.591667e+02
1.245156e+02	5.221114e-01	5.590269e+02
1.248281e+02	5.221114e-01	5.588872e+02
1.251406e+02	5.221114e-01	5.587475e+02
1.254531e+02	5.221114e-01	5.586079e+02
1.257656e+02	5.221114e-01	5.584685e+02
1.260781e+02	5.221114e-01	5.583290e+02
1.263906e+02	5.221114e-01	5.581897e+02
1.267031e+02	5.221114e-01	5.580504e+02
1.270156e+02	5.221114e-01	5.579112e+02
1.273281e+02	5.221114e-01	5.577721e+02
1.276406e+02	5.221114e-01	5.576331e+02
1.279531e+02	5.221114e-01	5.574941e+02
1.282656e+02	5.221114e-01	5.573553e+02
1.285781e+02	5.221114e-01	5.572164e+02
1.288906e+02	5.221114e-01	5.570777e+02
1.292031e+02	5.221114e-01	5.569391e+02
1.295156e+02	5.221114e-01	5.568005e+02
1.298281e+02	5.221114e-01	5.566620e+02
1.301406e+02	5.221114e-01	5.565235e+02
1.304531e+02	5.221114e-01	5.563852e+02
1.307656e+02	5.221114e-01	5.562469e+02
1.310781e+02	5.221114e-01	5.561087e+02
1.313906e+02	5.221114e-01	5.559706e+02
1.317031e+02	5.221114e-01	5.558325e+02
1.320156e+02	5.221114e-01	5.556945e+02
1.323281e+02	5.221114e-01	5.555566e+02
1.326406e+02	5.221114e-01	5.554188e+02
1.329531e+02	5.221114e-01	5.552810e+02
1.332656e+02	5.221114e-01	5.551434e+02
1.335781e+02	5.221114e-01	5.550058e+02
1.338906e+02	5.221114e-01	5.548682e+02
1.342031e+02	5.221114e-01	5.547308e+02
1.345156e+02	5.221114e-01	5.545934e+02
1.348281e+02	5.221114e-01	5.544561e+02
1.351406e+02	5.221114e-01	5.543189e+02
1.354531e+02	5.221114e-01	5.541817e+02
1.357656e+02	5.221114e-01	5.540446e+02
1.360781e+02	5.221114e-01	5.539076e+02
1.363906e+02	5.221114e-01	5.537707e+02
1.367031e+02	5.221114e-01	5.536338e+02
1.370156e+02	5.221114e-01	5.534970e+02
1.373281e+02	5.221114e-01	5.533603e+02
1.376406e+02	5.221114e-01	5.532237e+02
1.379531e+02	5.221114e-01	5.530871e+02
1.382656e+02	5.221114e-01	5.529507e+02
1.385781e+02	5.221114e-01	5.528142e+02
1.388906e+02	5.221114e-01	5.526779e+02
1.392031e+02	5.221114e-01	5.525416e+02
1.395156e+02	5.221114e-01	5.524054e+02
1.398281e+02	5.221114e-01	5.522693e+02
1.401406e+02	5.221114e-01	5.521333e+02
1.404531e+02	5.221114e-01	5.519973e+02
1.407656e+02	5.221114e-01	5.518614e+02
1.410781e+02	5.221114e-01	5.517256e+02
1.413906e+02	5.221114e-01	5.515898e+02
1.417031e+02	5.221114e-01	5.514542e+02
1.420156e+02	5.221114e-01	5.513186e+02
1.423281e+02	5.221114e-01	5.511830e+02
1.426406e+02	5.221114e-01	5.510476e+02
1.429531e+02	5.221114e-01	5.509122e+02
1.432656e+02	5.221114e-01	5.507769e+02
1.435781e+02	5.221114e-01	5.506416e+02
1.438906e+02	5.221114e-01	5.505065e+02
1.442031e+02	5.221114e-01	5.503714e+02
1.445156e+02	5.221114e-01	5.502364e+02
1.448281e+02	5.221114e-01	5.501014e+02
1.451406e+02	5.221114e-01	5.499666e+02
1.454531e+02	5.221114e-01	5.498318e+02
1.457656e+02	5.221114e-01	5.496970e+02
1.460781e+02	5.221114e-01	5.495624e+02
1.463906e+02	5.221114e-01	5.494278e+02
1.467031e+02	5.221114e-01	5.492933e+02
1.470156e+02	5.221114e-01	5.491589e+02
1.473281e+02	5.221114e-01	5.490245e+02
1.476406e+02	5.221114e-01	5.488902e+02
1.479531e+02	5.221114e-01	5.487560e+02
1.482656e+02	5.221114e-01	5.486219e+02
1.485781e+02	5.221114e-01	5.484878e+02
1.488906e+02	5.221114e-01	5.483538e+02
1.492031e+02	5.221114e-01	5.482199e+02
1.495156e+02	5.221114e-01	5.480860e+02
1.498281e+02	5.221114e-01	5.479522e+02
1.501406e+02	5.221114e-01	5.478185e+02
1.504531e+02	5.221114e-01	5.476849e+02
1.507656e+02	5.221114e-01	5.475513e+02
1.510781e+02	5.221114e-01	5.474178e+02
1.513906e+02	5.221114e-01	5.472844e+02
1.517031e+02	5.221114e-01	5.471510e+02
1.520156e+02	5.221114e-01	5.470178e+02
1.523281e+02	5.221114e-01	5.468846e+02
1.526406e+02	5.221114e-01	5.467514e+02
1.529531e+02	5.221114e-01	5.466184e+02
1.532656e+02	5.221114e-01	5.464854e+02
1.535781e+02	5.221114e-01	5.463525e+02
1.538906e+02	5.221114e-01	5.462196e+02
1.542031e+02	5.221114e-01	5.460868e+02
1.545156e+02	5.221114e-01	5.459541e+02
1.548281e+02	5.221114e-01	5.458215e+02
1.551406e+02	5.221114e-01	5.456889e+02
1.554531e+02	5.221114e-01	5.455564e+02
1.557656e+02	5.221114e-01	5.454240e+02
1.560781e+02	5.221114e-01	5.452917e+02
1.563906e+02	5.221114e-01	5.451594e+02
1.567031e+02	5.221114e-01	5.450272e+02
1.570156e+02	5.221114e-01	5.448951e+02
1.573281e+02	5.221114e-01	5.447630e+02
1.576406e+02	5.221114e-01	5.446310e+02
1.579531e+02	5.221114e-01	5.444991e+02
1.582656e+02	5.221114e-01	5.443672e+02
1.585781e+02	5.221114e-01	5.442355e+02
1.588906e+02	5.221114e-01	5.441038e+02
1.592031e+02	5.221114e-01	5.439721e+02
1.595156e+02	5.221114e-01	5.438406e+02
1.598281e+02	5.221114e-01	5.437091e+02
1.601406e+02	5.221114e-01	5.435777e+02
1.604531e+02	5.221114e-01	5.434463e+02
1.607656e+02	5.221114e-01	5.433150e+02
1.610781e+02	5.221114e-01	5.431838e+02
1.613906e+02	5.221114e-01	5.430527e+02
1.617031e+02	5.221114e-01	5.429216e+02
1.620156e+02	5.221114e-01	5.427906e+02
1.623281e+02	5.221114e-01	5.426597e+02
1.626406e+02	5.221114e-01	5.425288e+02
1.629531e+02	5.221114e-01	5.423980e+02
1.632656e+02	5.221114e-01	5.422673e+02
1.635781e+02	5.221114e-01	5.421367e+02
1.638906e+02	5.221114e-01	5.420061e+02
1.642031e+02	5.221114e-01	5.418756e+02
1.645156e+02	5.221114e-01	5.417451e+02
1.648281e+02	5.221114e-01	5.416148e+02
1.651406e+02	5.221114e-01	5.414845e+02
1.654531e+02	5.221114e-01	5.413543e+02
1.657656e+02	5.221114e-01	5.412241e+02
1.660781e+02	5.221114e-01	5.410940e+02
1.663906e+02	5.221114e-01	5.409640e+02
1.667031e+02	5.221114e-01	5.408341e+02
1.670156e+02	5.221114e-01	5.407042e+02
1.673281e+02	5.221114e-01	5.405744e+02
1.676406e+02	5.221114e-01	5.404446e+02
1.679531e+02	5.221114e-01	5.403150e+02
1.682656e+02	5.221114e-01	5.401854e+02
1.685781e+02	5.221114e-01	5.400559e+02
1.688906e+02	5.221114e-01	5.399264e+02
1.692031e+02	5.221114e-01	5.397970e+02
1.695156e+02	5.221114e-01	5.396677e+02
1.698281e+02	5.221114e-01	5.395385e+02
1.701406e+02	5.221114e-01	5.394093e+02
1.704531e+02	5.221114e-01	5.392802e+02
1.707656e+02	5.221114e-01	5.391511e+02
1.710781e+02	5.221114e-01	5.390222e+02
1.713906e+02	5.221114e-01	5.388933e+02
1.717031e+02	5.221114e-01	5.387644e+02
1.720156e+02	5.221114e-01	5.386357e+02
1.723281e+02	5.221114e-01	5.385070e+02
1.726406e+02	5.221114e-01	5.383783e+02
1.729531e+02	5.221114e-01	5.382498e+02
1.732656e+02	5.221114e-01	5.381213e+02
1.735781e+02	5.221114e-01	5.379929e+02
1.738906e+02	5.221114e-01	5.378645e+02
1.742031e+02	5.221114e-01	5.377363e+02
1.745156e+02	5.221114e-01	5.376081e+02
1.748281e+02	5.221114e-01	5.374799e+02
1.751406e+02	5.221114e-01	5.373518e+02
1.754531e+02	5.221114e-01	5.372238e+02
1.757656e+02	5.221114e-01	5.370959e+02
1.760781e+02	5.221114e-01	5.369680e+02
1.763906e+02	5.221114e-01	5.368402e+02
1.767031e+02	5.221114e-01	5.367125e+02
1.770156e+02	5.221114e-01	5.365849e+02
1.773281e+02	5.221114e-01	5.364573e+02
1.776406e+02	5.221114e-01	5.363297e+02
1.779531e+02	5.221114e-01	5.362023e+02
1.782656e+02	5.221114e-01	5.360749e+02
1.785781e+02	5.221114e-01	5.359476e+02
1.788906e+02	5.221114e-01	5.358203e+02
1.792031e+02	5.221114e-01	5.356932e+02
1.795156e+02	5.221114e-01	5.355661e+02
1.798281e+02	5.221114e-01	5.354390e+02
1.801406e+02	5.221114e-01	5.353120e+02
1.804531e+02	5.221114e-01	5.351851e+02
1.807656e+02	5.221114e-01	5.350583e+02
1.810781e+02	5.221114e-01	5.349315e+02
1.813906e+02	5.221114e-01	5.348048e+02
1.817031e+02	5.221114e-01	5.346782e+02
1.820156e+02	5.221114e-01	5.345516e+02
1.823281e+02	5.221114e-01	5.344251e+02
1.826406e+02	5.221114e-01	5.342987e+02
1.829531e+02	5.221114e-01	5.341723e+02
1.832656e+02	5.221114e-01	5.340460e+02
1.835781e+02	5.221114e-01	5.339198e+02
1.838906e+02	5.221114e-01	5.337936e+02
1.842031e+02	5.221114e-01	5.336676e+02
1.845156e+02	5.221114e-01	5.335415e+02
1.848281e+02	5.221114e-01	5.334156e+02
1.851406e+02	5.221114e-01	5.332897e+02
1.854531e+02	5.221114e-01	5.331639e+02
1.857656e+02	5.221114e-01	5.330381e+02
1.860781e+02	5.221114e-01	5.329124e+02
1.863906e+02	5.221114e-01	5.327868e+02
1.867031e+02	5.221114e-01	5.326613e+02
1.870156e+02	5.221114e-01	5.325358e+02
1.873281e+02	5.221114e-01	5.324104e+02
1.876406e+02	5.221114e-01	5.322850e+02
1.879531e+02	5.221114e-01	5.321597e+02
1.882656e+02	5.221114e-01	5.320345e+02
1.885781e+02	5.221114e-01	5.319094e+02
1.888906e+02	5.221114e-01	5.317843e+02
1.892031e+02	5.221114e-01	5.316593e+02
1.895156e+02	5.221114e-01	5.315344e+02
1.898281e+02	5.221114e-01	5.314095e+02
1.901406e+02	5.221114e-01	5.312847e+02
1.904531e+02	5.221114e-01	5.311599e+02
1.907656e+02	5.221114e-01	5.310352e+02
1.910781e+02	5.221114e-01	5.309106e+02
1.913906e+02	5.221114e-01	5.307861e+02
1.917031e+02	5.221114e-01	5.306616e+02
1.920156e+02	5.221114e-01	5.305372e+02
1.923281e+02	5.221114e-01	5.304129e+02
1.926406e+02	5.221114e-01	5.302886e+02
1.929531e+02	5.221114e-01	5.301644e+02
1.932656e+02	5.221114e-01	5.300403e+02
1.935781e+02	5.221114e-01	5.299162e+02
1.938906e+02	5.221114e-01	5.297922e+02
1.942031e+02	5.221114e-01	5.296682e+02
1.945156e+02	5.221114e-01	5.295444e+02
1.948281e+02	5.221114e-01	5.294205e+02
1.951406e+02	5.221114e-01	5.292968e+02
1.954531e+02	5.221114e-01	5.291731e+02
1.957656e+02	5.221114e-01	5.290495e+02
1.960781e+02	5.221114e-01	5.289260e+02
1.963906e+02	5.221114e-01	5.288025e+02
1.967031e+02	5.221114e-01	5.286791e+02
1.970156e+02	5.221114e-01	5.285557e+02
1.973281e+02	5.221114e-01	5.284325e+02
1.976406e+02	5.221114e-01	5.283093e+02
1.979531e+02	5.221114e-01	5.281861e+02
1.982656e+02	5.221114e-01	5.280630e+02
1.985781e+02	5.221114e-01	5.279400e+02
1.988906e+02	5.221114e-01	5.278171e+02
1.992031e+02	5.221114e-01	5.276942e+02
1.995156e+02	5.221114e-01	5.275714e+02
1.998281e+02	5.221114e-01	5.274486e+02
2.001406e+02	5.221114e-01	5.273260e+02
2.004531e+02	5.221114e-01	5.272033e+02
2.007656e+02	5.221114e-01	5.270808e+02
2.010781e+02	5.221114e-01	5.269583e+02
2.013906e+02	5.221114e-01	5.268359e+02
2.017031e+02	5.221114e-01	5.267135e+02
2.020156e+02	5.221114e-01	5.265912e+02
2.023281e+02	5.221114e-01	5.264690e+02
2.026406e+02	5.221114e-01	5.263469e+02
2.029531e+02	5.221114e-01	5.262248e+02
2.032656e+02	5.221114e-01	5.261028e+02
2.035781e+02	5.221114e-01	5.259808e+02
2.038906e+02	5.221114e-01	5.258589e+02
2.042031e+02	5.221114e-01	5.257371e+02
2.045156e+02	5.221114e-01	5.256153e+02
2.048281e+02	5.221114e-01	5.254936e+02
2.051406e+02	5.221114e-01	5.253720e+02
2.054531e+02	5.221114e-01	5.252504e+02
2.057656e+02	5.221114e-01	5.251289e+02
2.060781e+02	5.221114e-01	5.250075e+02
2.063906e+02	5.221114e-01	5.248861e+02
2.067031e+02	5.221114e-01	5.247648e+02
2.070156e+02	5.221114e-01	5.246436e+02
2.073281e+02	5.221114e-01	5.245224e+02
2.076406e+02	5.221114e-01	5.244013e+02
2.079531e+02	5.221114e-01	5.242802e+02
2.082656e+02	5.221114e-01	5.241592e+02
2.085781e+02	5.221114e-01	5.240383e+02
2.088906e+02	5.221114e-01	5.239175e+02
2.092031e+02	5.221114e-01	5.237967e+02
2.095156e+02	5.221114e-01	5.236760e+02
2.098281e+02	5.221114e-01	5.235553e+02
2.101406e+02	5.221114e-01	5.234347e+02
2.104531e+02	5.221114e-01	5.233142e+02
2.107656e+02	5.221114e-01	5.231937e+02
2.110781e+02	5.221114e-01	5.230733e+02
2.113906e+02	5.221114e-01	5.229530e+02
2.117031e+02	5.221114e-01	5.228327e+02
2.120156e+02	5.221114e-01	5.227125e+02
2.123281e+02	5.221114e-01	5.225924e+02
2.126406e+02	5.221114e-01	5.224723e+02
2.129531e+02	5.221114e-01	5.223523e+02
2.132656e+02	5.221114e-01	5.222324e+02
2.135781e+02	5.221114e-01	5.221125e+02
2.138906e+02	5.221114e-01	5.219927e+02
2.142031e+02	5.221114e-01	5.218729e+02
2.145156e+02	5.221114e-01	5.217532e+02
2.148281e+02	5.221114e-01	5.216336e+02
2.151406e+02	5.221114e-01	5.215141e+02
2.154531e+02	5.221114e-01	5.213946e+02
2.157656e+02	5.221114e-01	5.212751e+02
2.160781e+02	5.221114e-01	5.211558e+02
2.163906e+02	5.221114e-01	5.210365e+02
2.167031e+02	5.221114e-01	5.209172e+02
2.170156e+02	5.221114e-01	5.207980e+02
2.173281e+02	5.221114e-01	5.206789e+02
2.176406e+02	5.221114e-01	5.205599e+02
2.179531e+02	5.221114e-01	5.204409e+02
2.182656e+02	5.221114e-01	5.203220e+02
2.185781e+02	5.221114e-01	5.202031e+02
2.188906e+02	5.221114e-01	5.200843e+02
2.192031e+02	5.221114e-01	5.199656e+02
2.195156e+02	5.221114e-01	5.198470e+02
2.198281e+02	5.221114e-01	5.197284e+02
2.201406e+02	5.221114e-01	5.196098e+02
2.204531e+02	5.221114e-01	5.194914e+02
2.207656e+02	5.221114e-01	5.193729e+02
2.210781e+02	5.221114e-01	5.192546e+02
2.213906e+02	5.221114e-01	5.191363e+02
2.217031e+02	5.221114e-01	5.190181e+02
2.220156e+02	5.221114e-01	5.189000e+02
2.223281e+02	5.221114e-01	5.187819e+02
2.226406e+02	5.221114e-01	5.186638e+02
2.229531e+02	5.221114e-01	5.185459e+02
2.232656e+02	5.221114e-01	5.184280e+02
2.235781e+02	5.221114e-01	5.183101e+02
2.238906e+02	5.221114e-01	5.181924e+02
2.242031e+02	5.221114e-01	5.180747e+02
2.245156e+02	5.221114e-01	5.179570e+02
2.248281e+02	5.221114e-01	5.178394e+02
2.251406e+02	5.221114e-01	5.177219e+02
2.254531e+02	5.221114e-01	5.176044e+02
2.257656e+02	5.221114e-01	5.174871e+02
2.260781e+02	5.221114e-01	5.173697e+02
2.263906e+02	5.221114e-01	5.172525e+02
2.267031e+02	5.221114e-01	5.171352e+02
2.270156e+02	5.221114e-01	5.170181e+02
2.273281e+02	5.221114e-01	5.169010e+02
2.276406e+02	5.221114e-01	5.167840e+02
2.279531e+02	5.221114e-01	5.166671e+02
2.282656e+02	5.221114e-01	5.165502e+02
2.285781e+02	5.221114e-01	5.164333e+02
2.288906e+02	5.221114e-01	5.163166e+02
2.292031e+02	5.221114e-01	5.161999e+02
2.295156e+02	5.221114e-01	5.160832e+02
2.298281e+02	5.221114e-01	5.159667e+02
2.301406e+02	5.221114e-01	5.158501e+02
2.304531e+02	5.221114e-01	5.157337e+02
2.307656e+02	5.221114e-01	5.156173e+02
2.310781e+02	5.221114e-01	5.155010e+02
2.313906e+02	5.221114e-01	5.153847e+02
2.317031e+02	5.221114e-01	5.152685e+02
2.320156e+02	5.221114e-01	5.151524e+02
2.323281e+02	5.221114e-01	5.150363e+02
2.326406e+02	5.221114e-01	5.149203e+02
2.329531e+02	5.221114e-01	5.148043e+02
2.332656e+02	5.221114e-01	5.146884e+02
2.335781e+02	5.221114e-01	5.145726e+02
2.338906e+02	5.221114e-01	5.144569e+02
2.342031e+02	5.221114e-01	5.143412e+02
2.345156e+02	5.221114e-01	5.142255e+02
2.348281e+02	5.221114e-01	5.141099e+02
2.351406e+02	5.221114e-01	5.139944e+02
2.354531e+02	5.221114e-01	5.138790e+02
2.357656e+02	5.221114e-01	5.137636e+02
2.360781e+02	5.221114e-01	5.136482e+02
2.363906e+02	5.221114e-01	5.135330e+02
2.367031e+02	5.221114e-01	5.134178e+02
2.370156e+02	5.221114e-01	5.133026e+02
2.373281e+02	5.221114e-01	5.131875e+02
2.376406e+02	5.221114e-01	5.130725e+02
2.379531e+02	5.221114e-01	5.129576e+02
2.382656e+02	5.221114e-01	5.128427e+02
2.385781e+02	5.221114e-01	5.127278e+02
2.388906e+02	5.221114e-01	5.126131e+02
2.392031e+02	5.221114e-01	5.124984e+02
2.395156e+02	5.221114e-01	5.123837e+02
2.398281e+02	5.221114e-01	5.122691e+02
2.401406e+02	5.221114e-01	5.121546e+02
2.404531e+02	5.221114e-01	5.120401e+02
2.407656e+02	5.221114e-01	5.119257e+02
2.410781e+02	5.221114e-01	5.118114e+02
2.413906e+02	5.221114e-01	5.116971e+02
2.417031e+02	5.221114e-01	5.115829e+02
2.420156e+02	5.221114e-01	5.114687e+02
2.423281e+02	5.221114e-01	5.113546e+02
2.426406e+02	5.221114e-01	5.112406e+02
2.429531e+02	5.221114e-01	5.111266e+02
2.432656e+02	5.221114e-01	5.110127e+02
2.435781e+02	5.221114e-01	5.108989e+02
2.438906e+02	5.221114e-01	5.107851e+02
2.442031e+02	5.221114e-01	5.106713e+02
2.445156e+02	5.221114e-01	5.105577e+02
2.448281e+02	5.221114e-01	5.104441e+02
2.451406e+02	5.221114e-01	5.103305e+02
2.454531e+02	5.221114e-01	5.102170e+02
2.457656e+02	5.221114e-01	5.101036e+02
2.460781e+02	5.221114e-01	5.099902e+02
2.463906e+02	5.221114e-01	5.098769e+02
2.467031e+02	5.221114e-01	5.097637e+02
2.470156e+02	5.221114e-01	5.096505e+02
2.473281e+02	5.221114e-01	5.095374e+02
2.476406e+02	5.221114e-01	5.094244e+02
2.479531e+02	5.221114e-01	5.093114e+02
2.482656e+02	5.221114e-01	5.091984e+02
2.485781e+02	5.221114e-01	5.090855e+02
2.488906e+02	5.221114e-01	5.089727e+02
2.492031e+02	5.221114e-01	5.088600e+02
2.495156e+02	5.221114e-01	5.087473e+02
2.498281e+02	5.221114e-01	5.086346e+02
2.501406e+02	5.221114e-01	5.085221e+02
2.504531e+02	5.221114e-01	5.084096e+02
2.507656e+02	5.221114e-01	5.082971e+02
2.510781e+02	5.221114e-01	5.081847e+02
2.513906e+02	5.221114e-01	5.080724e+02
2.517031e+02	5.221114e-01	5.079601e+02
2.520156e+02	5.221114e-01	5.078479e+02
2.523281e+02	5.221114e-01	5.077358e+02
2.526406e+02	5.221114e-01	5.076237e+02
2.529531e+02	5.221114e-01	5.075116e+02
2.532656e+02	5.221114e-01	5.073997e+02
2.535781e+02	5.221114e-01	5.072878e+02
2.538906e+02	5.221114e-01	5.071759e+02
2.542031e+02	5.221114e-01	5.070641e+02
2.545156e+02	5.221114e-01	5.069524e+02
2.548281e+02	5.221114e-01	5.068407e+02
2.551406e+02	5.221114e-01	5.067291e+02
2.554531e+02	5.221114e-01	5.066176e+02
2.557656e+02	5.221114e-01	5.065061e+02
2.560781e+02	5.221114e-01	5.063947e+02
2.563906e+02	5.221114e-01	5.062833e+02
2.567031e+02	5.221114e-01	5.061720e+02
2.570156e+02	5.221114e-01	5.060607e+02
2.573281e+02	5.221114e-01	5.059496e+02
2.576406e+02	5.221114e-01	5.058384e+02
2.579531e+02	5.221114e-01	5.057274e+02
2.582656e+02	5.221114e-01	5.056164e+02
2.585781e+02	5.221114e-01	5.055054e+02
2.588906e+02	5.221114e-01	5.053945e+02
2.592031e+02	5.221114e-01	5.052837e+02
2.595156e+02	5.221114e-01	5.051729e+02
2.598281e+02	5.221114e-01	5.050622e+02
2.601406e+02	5.221114e-01	5.049516e+02
2.604531e+02	5.221114e-01	5.048410e+02
2.607656e+02	5.221114e-01	5.047304e+02
2.610781e+02	5.221114e-01	5.046200e+02
2.613906e+02	5.221114e-01	5.045095e+02
2.617031e+02	5.221114e-01	5.043992e+02
2.620156e+02	5.221114e-01	5.042889e+02
2.623281e+02	5.221114e-01	5.041787e+02
2.626406e+02	5.221114e-01	5.040685e+02
2.629531e+02	5.221114e-01	5.039584e+02
2.632656e+02	5.221114e-01	5.038483e+02
2.635781e+02	5.221114e-01	5.037383e+02
2.638906e+02	5.221114e-01	5.036284e+02
2.642031e+02	5.221114e-01	5.035185e+02
2.645156e+02	5.221114e-01	5.034087e+02
2.648281e+02	5.221114e-01	5.032989e+02
2.651406e+02	5.221114e-01	5.031892e+02
2.654531e+02	5.221114e-01	5.030796e+02
2.657656e+02	5.221114e-01	5.029700e+02
2.660781e+02	5.221114e-01	5.028605e+02
2.663906e+02	5.221114e-01	5.027510e+02
2.667031e+02	5.221114e-01	5.026416e+02
2.670156e+02	5.221114e-01	5.025322e+02
2.673281e+02	5.221114e-01	5.024230e+02
2.676406e+02	5.221114e-01	5.023137e+02
2.679531e+02	5.221114e-01	5.022045e+02
2.682656e+02	5.221114e-01	5.020954e+02
2.685781e+02	5.221114e-01	5.019864e+02
2.688906e+02	5.221114e-01	5.018774e+02
2.692031e+02	5.221114e-01	5.017684e+02
2.695156e+02	5.221114e-01	5.016596e+02
2.698281e+02	5.221114e-01	5.015507e+02
2.701406e+02	5.221114e-01	5.014420e+02
2.704531e+02	5.221114e-01	5.013333e+02
2.707656e+02	5.221114e-01	5.012246e+02
2.710781e+02	5.221114e-01	5.011161e+02
2.713906e+02	5.221114e-01	5.010075e+02
2.717031e+02	5.221114e-01	5.008991e+02
2.720156e+02	5.221114e-01	5.007906e+02
2.723281e+02	5.221114e-01	5.006823e+02
2.726406e+02	5.221114e-01	5.005740e+02
2.729531e+02	5.221114e-01	5.004658e+02
2.732656e+02	5.221114e-01	5.003576e+02
2.735781e+02	5.221114e-01	5.002495e+02
2.738906e+02	5.221114e-01	5.001414e+02
2.742031e+02	5.221114e-01	5.000334e+02
2.745156e+02	5.221114e-01	4.999255e+02
2.748281e+02	5.221114e-01	4.998176e+02
2.751406e+02	5.221114e-01	4.997097e+02
2.754531e+02	5.221114e-01	4.996020e+02
2.757656e+02	5.221114e-01	4.994943e+02
2.760781e+02	5.221114e-01	4.993866e+02
2.763906e+02	5.221114e-01	4.992790e+02
2.767031e+02	5.221114e-01	4.991715e+02
2.770156e+02	5.221114e-01	4.990640e+02
2.773281e+02	5.221114e-01	4.989566e+02
2.776406e+02	5.221114e-01	4.988492e+02
2.779531e+02	5.221114e-01	4.987419e+02
2.782656e+02	5.221114e-01	4.986346e+02
2.785781e+02	5.221114e-01	4.985274e+02
2.788906e+02	5.221114e-01	4.984203e+02
2.792031e+02	5.221114e-01	4.983132e+02
2.795156e+02	5.221114e-01	4.982062e+02