/*--------------------------------*- C++ -*----------------------------------*\
| =========                 |                                                 |
| \\      /  F ield         | OpenFOAM: The Open Source CFD Toolbox           |
|  \\    /   O peration     | Version:  2.3.1                                 |
|   \\  /    A nd           | Web:      www.OpenFOAM.org                      |
|    \\/     M anipulation  |                                                 |
\*---------------------------------------------------------------------------*/
FoamFile
{
    version     2.0;
    format      ascii;
    class       volScalarField;
    location    "3000/fluid";
    object      p;
}
// * * * * * * * * * * * * * * * * * * * * * * * * * * * * * * * * * * * * * //

dimensions      [1 -1 -2 0 0 0 0];

internalField   nonuniform List<scalar> 
25373
(
0.0237668
0.0450204
0.0237501
0.0490423
0.0507596
0.0449486
0.0507466
0.064165
0.020921
0.0473153
0.056711
0.0684501
0.0311122
0.0219057
0.0311046
0.0236529
0.0266877
0.0219195
0.0266984
0.0237227
0.0299366
0.0235522
0.0261507
0.0259274
0.0595512
0.0737477
0.0595399
0.0814899
0.0927471
0.0737163
0.0927802
0.102385
0.0546474
0.0772568
0.0941202
0.100383
0.08454
0.0872428
0.0845272
0.089787
0.0937226
0.0872387
0.0937611
0.0974307
0.0808533
0.0883723
0.0947572
0.0981863
0.11434
0.111784
0.114345
0.111773
0.110786
0.111826
0.110826
0.110594
0.111898
0.110491
0.110234
0.110836
0.14637
0.137219
0.146364
0.13414
0.126954
0.137225
0.127008
0.121289
0.145856
0.132675
0.123386
0.119314
0.177419
0.160004
0.177296
0.153163
0.135771
0.160096
0.13564
0.12097
0.178466
0.150617
0.126532
0.114646
0.198128
0.172889
0.198114
0.162908
0.133331
0.172803
0.133154
0.106144
0.201473
0.158557
0.119954
0.0875404
0.199847
0.168191
0.199825
0.155113
0.118023
0.168181
0.117867
0.0664975
0.205425
0.151051
0.0922822
0.0220707
0.180233
0.153697
0.180257
0.141548
0.103153
0.15371
0.103117
0.0318047
0.185339
0.137221
0.0708762
-0.00901435
0.0156245
0.00838513
0.0167819
0.0170724
0.0231577
0.00791123
0.0166336
0.0208962
0.0189431
0.0189484
0.0243224
0.0108075
0.0108076
0.0171898
0.023206
0.0256104
0.0276053
0.016279
0.0187933
0.0211548
0.026546
0.0156
0.00834979
0.0255857
0.0231737
0.0275877
0.016267
0.0211494
0.0187675
0.026544
0.0170355
0.0167215
0.0230982
0.0166233
0.00781353
0.020835
0.0223851
0.0218966
0.0248279
0.0126782
0.0210318
0.013516
0.0235141
0.0295403
0.0366675
0.024638
0.0273511
0.0313698
0.0336337
0.0380248
0.0425517
0.0299499
0.029965
0.0340932
0.0369102
0.0369277
0.0416437
0.0292929
0.026758
0.0293619
0.0401695
0.0380355
0.0369476
0.0421899
0.02949
0.0366428
0.0267337
0.029284
0.0293614
0.040158
0.0369312
0.0380313
0.0422016
0.0273019
0.0246131
0.0313202
0.0380308
0.0336129
0.0425348
0.026815
0.0301378
0.028529
0.0380475
0.039445
0.038077
0.0414636
0.0467913
0.0593922
0.0488537
0.053585
0.0556023
0.0591011
0.0653724
0.0670735
0.0521157
0.0521423
0.0556064
0.0632276
0.06325
0.0677308
0.0571448
0.0570772
0.0511957
0.0676432
0.0678277
0.0671027
0.0658727
0.0467963
0.0593923
0.0570552
0.0571457
0.0511899
0.0676308
0.0670869
0.0678294
0.0658782
0.0535932
0.048824
0.0555646
0.0653657
0.0590294
0.0670162
0.0564653
0.0548683
0.0563572
0.0643424
0.0669373
0.0649206
0.0674588
0.0749812
0.0900105
0.0750167
0.0814836
0.0828836
0.0888833
0.0958289
0.0965458
0.0799062
0.0799247
0.0840047
0.0943136
0.0943305
0.0982725
0.0844676
0.0837685
0.08088
0.097485
0.0978839
0.0960094
0.0940691
0.075005
0.090023
0.0837532
0.0844704
0.0808978
0.0974781
0.0959884
0.0978884
0.0940689
0.0815165
0.0751191
0.0830047
0.0958886
0.089127
0.0967275
0.0832633
0.0814598
0.083503
0.0945858
0.0959548
0.0951677
0.096161
0.107535
0.124204
0.106313
0.112707
0.112913
0.12284
0.128268
0.127745
0.111967
0.11199
0.115033
0.128417
0.128443
0.130212
0.114201
0.111315
0.108656
0.12963
0.128808
0.124374
0.12108
0.107575
0.124245
0.111308
0.114254
0.108695
0.129613
0.124338
0.128817
0.12107
0.112813
0.106652
0.113152
0.128393
0.123225
0.127971
0.111414
0.112332
0.111357
0.127991
0.124736
0.12819
0.124299
0.142519
0.158905
0.141493
0.145119
0.143723
0.158362
0.159568
0.157221
0.146739
0.146747
0.146412
0.162548
0.162487
0.160165
0.144345
0.138182
0.133599
0.160846
0.15746
0.149368
0.143178
0.142677
0.15909
0.138192
0.144369
0.133695
0.160775
0.149365
0.157384
0.143168
0.145296
0.141906
0.143949
0.159693
0.158727
0.15733
0.138928
0.145586
0.137913
0.161639
0.150249
0.160939
0.148647
0.177623
0.188603
0.177597
0.175833
0.1723
0.1903
0.18386
0.178431
0.180844
0.180651
0.175393
0.191051
0.190871
0.180445
0.172297
0.162924
0.154997
0.184935
0.175798
0.162542
0.154696
0.177782
0.188674
0.162949
0.172294
0.154957
0.184815
0.162686
0.175808
0.154875
0.176066
0.177973
0.172371
0.183839
0.190701
0.178385
0.163212
0.177429
0.161032
0.188298
0.164541
0.18674
0.161349
0.203639
0.207285
0.205185
0.196591
0.190439
0.209943
0.19755
0.189789
0.205238
0.205254
0.193438
0.207341
0.207337
0.192009
0.189925
0.177898
0.166668
0.198834
0.187302
0.173752
0.161397
0.203706
0.207303
0.177841
0.189879
0.166564
0.198824
0.173761
0.18731
0.161466
0.196556
0.205355
0.190419
0.197512
0.210038
0.189797
0.178064
0.199564
0.174511
0.20409
0.174863
0.201734
0.170438
0.210064
0.202579
0.213593
0.197974
0.189647
0.20674
0.18962
0.181239
0.209521
0.209518
0.191939
0.201204
0.201207
0.183027
0.186959
0.173702
0.160473
0.191346
0.178259
0.166366
0.15318
0.210099
0.202624
0.173699
0.186948
0.160463
0.191338
0.166378
0.178275
0.153238
0.197967
0.21365
0.189629
0.189625
0.206769
0.181235
0.174345
0.20262
0.16962
0.197212
0.166931
0.194489
0.162186
0.19127
0.195451
0.178446
0.17105
0.189136
0.189216
0.172107
0.168111
0.158862
0.146765
0.19126
0.158833
0.168121
0.14676
0.178433
0.195424
0.171019
0.159028
0.183034
0.154986
0.0662036
0.0583399
0.0472647
0.069498
0.0674205
0.068684
0.0678215
0.066371
0.0664112
0.0438295
0.0717349
0.0703315
0.0703365
0.0679188
0.0770692
0.0661479
0.0438757
0.0758012
0.0730619
0.072447
0.0701489
0.0582834
0.0662024
0.0472093
0.0694724
0.0686674
0.0673802
0.0677759
0.066113
0.0770978
0.04387
0.0758119
0.0724354
0.0730573
0.0701452
0.0771051
0.0771552
0.0483423
0.0789461
0.0750559
0.0750638
0.0724858
0.0555222
0.0741599
0.0499619
0.0707973
0.0700743
0.0705313
0.069408
0.0593828
0.0868722
0.0500581
0.0768584
0.0730019
0.0755241
0.0720157
0.0697557
0.0898101
0.0584395
0.0791661
0.0756992
0.0775294
0.0746355
0.0846061
0.0847424
0.0824831
0.0969684
0.0946645
0.0958645
0.0950809
0.0872834
0.0873055
0.082341
0.0977875
0.0968135
0.0968041
0.0948155
0.0903113
0.0885522
0.083928
0.0987282
0.0973978
0.0970686
0.0958068
0.0847417
0.0846791
0.082539
0.0969649
0.0958283
0.0947122
0.0950841
0.0885504
0.0903814
0.0839645
0.0987071
0.0970459
0.0973101
0.0957304
0.0924141
0.0924618
0.0868177
0.100069
0.0987442
0.0987323
0.0974655
0.0852048
0.0879893
0.0841089
0.0966454
0.096119
0.0965629
0.0957343
0.0881552
0.093283
0.086346
0.0988866
0.0972193
0.0983295
0.0966219
0.0923825
0.0962409
0.0902652
0.100659
0.0993904
0.100051
0.09891
0.109097
0.109473
0.10821
0.123988
0.120827
0.120222
0.118562
0.110083
0.1101
0.107403
0.122474
0.119907
0.119876
0.116597
0.109135
0.108652
0.107082
0.118607
0.116777
0.116003
0.11456
0.10949
0.109201
0.108316
0.124033
0.120207
0.120908
0.118588
0.108678
0.109212
0.107152
0.118581
0.116005
0.116729
0.11449
0.10924
0.10928
0.107987
0.115805
0.114688
0.114625
0.113834
0.108778
0.110252
0.108288
0.121102
0.117944
0.120575
0.117271
0.108285
0.109734
0.107761
0.116562
0.114539
0.116016
0.11404
0.109635
0.110445
0.10928
0.114988
0.114419
0.114649
0.11418
0.13348
0.131034
0.128526
0.147672
0.143131
0.138602
0.134935
0.129978
0.129997
0.125168
0.142361
0.136335
0.136332
0.129673
0.124325
0.122979
0.120754
0.131453
0.127968
0.125573
0.122559
0.131098
0.133547
0.128611
0.147628
0.138551
0.143145
0.134845
0.12298
0.124381
0.120751
0.131467
0.125697
0.127882
0.122622
0.119533
0.119512
0.11822
0.122122
0.11947
0.119456
0.117266
0.127035
0.131694
0.125957
0.140728
0.131914
0.139303
0.130408
0.120155
0.122567
0.119474
0.125874
0.121013
0.124801
0.119986
0.118305
0.118823
0.117968
0.118354
0.116496
0.117618
0.115937
0.154761
0.147231
0.141458
0.160496
0.155178
0.148374
0.142719
0.143635
0.143556
0.13357
0.152641
0.146174
0.146274
0.134556
0.130351
0.126815
0.122098
0.136834
0.129358
0.123423
0.116386
0.147209
0.154821
0.141358
0.160321
0.148395
0.155048
0.142753
0.126751
0.130217
0.121966
0.136864
0.12363
0.129371
0.11651
0.117016
0.116858
0.11346
0.114223
0.107135
0.107149
0.101143
0.136627
0.148344
0.134217
0.151328
0.138091
0.149442
0.135043
0.119388
0.124667
0.118024
0.123361
0.111405
0.120791
0.108792
0.111918
0.113527
0.1108
0.103639
0.0980565
0.102115
0.0963088
0.166912
0.153127
0.144273
0.168802
0.162108
0.147503
0.137214
0.145526
0.145432
0.130433
0.157086
0.140653
0.140628
0.122221
0.125879
0.120198
0.110457
0.125805
0.113634
0.10487
0.0918014
0.153003
0.166887
0.1442
0.16884
0.147564
0.162268
0.137308
0.120194
0.125747
0.110384
0.125819
0.105048
0.113729
0.091965
0.0951867
0.0949527
0.0852352
0.0879409
0.0724611
0.0725201
0.0527865
0.134899
0.154867
0.131444
0.1535
0.127952
0.149651
0.12344
0.103215
0.116504
0.0994662
0.105005
0.0825356
0.101063
0.0771142
0.0812833
0.0847457
0.0782391
0.0618026
0.0416971
0.059007
0.0377934
0.161282
0.144245
0.132034
0.161033
0.154384
0.136656
0.123515
0.135976
0.135884
0.114027
0.147837
0.128139
0.128138
0.103905
0.103655
0.0928553
0.0748633
0.109286
0.0932174
0.0788396
0.0574199
0.144258
0.161291
0.131952
0.161071
0.136733
0.154433
0.123582
0.0927098
0.103398
0.0744517
0.109363
0.0790451
0.0933137
0.0581298
0.0421222
0.0414277
0.0143036
0.050941
0.0100469
0.00973953
-0.067779
0.120685
0.146339
0.115084
0.144058
0.111175
0.139181
0.105616
0.0621455
0.0849993
0.0509502
0.0830055
0.030732
0.0754353
0.0222381
-0.00655022
0.0138718
-0.0501127
0.0502826
-0.0762085
0.0105682
-0.137613
0.147891
0.131128
0.118308
0.122972
0.122957
0.0986585
0.0886684
0.073639
0.0455035
0.131146
0.147843
0.118253
0.0735446
0.0886597
0.0455581
0.0661578
0.0671013
-0.0500414
0.106153
0.13264
0.103755
0.0154439
0.0589544
0.0663827
-0.0233832
-0.026046
-0.0897247
-0.0806941
-0.0838347
-0.0700615
-0.0348158
-0.228239
-0.082517
-0.0980296
-0.065852
-0.0247487
-0.0252921
-0.0191092
-0.091195
-0.0398666
-0.0925906
-0.0279317
-0.170201
-0.0867722
-0.0246432
-0.182552
0.173185
0.176354
0.16268
0.155918
0.170556
0.170659
0.156506
0.163699
0.15371
0.148503
0.138879
0.173157
0.163751
0.148465
0.153728
0.13886
0.162664
0.176356
0.155913
0.167351
0.148567
0.16553
0.144792
0.14446
0.139611
0.126326
0.11448
0.134482
0.118575
0.118656
0.096604
0.101022
0.0860726
0.0739347
0.144489
0.126313
0.13959
0.114458
0.101009
0.0738071
0.0861477
0.131264
0.107289
0.126628
-0.0404275
-0.100137
-0.0788298
-0.0796748
-0.0891665
-0.0177454
-0.0644966
-0.0346729
-0.1252
-0.117905
-0.075904
-0.0705591
-0.0445865
-0.0384534
-0.0481875
-0.0855796
-0.0460394
0.0240813
-0.0871902
0.00278202
-0.0528139
-0.0309959
-0.0787644
-0.0310122
-0.060786
-0.0254972
-0.00459529
-0.0877222
-0.0614429
-0.0715879
-0.137248
-0.133341
-0.0922801
-0.129734
-0.0909186
-0.0801245
-0.0485323
-0.0115562
-0.11857
-0.0603647
-0.0597903
-0.0142468
-0.142392
-0.136236
-0.0836455
-0.138051
-0.0611333
-0.0568758
-0.0981143
-0.172663
-0.105744
-0.155785
-0.111828
-0.0870188
-0.0634438
-0.164734
-0.095671
-0.135322
-0.167646
-0.112079
-0.0969853
-0.238805
-0.0952811
-0.174079
-0.0909868
-0.159539
-0.176387
-0.173664
-0.158924
-0.0510237
-0.112985
-0.097118
-0.146827
-0.144359
-0.147696
-0.14494
-0.168881
-0.0725807
-0.0601502
-0.159859
-0.0582587
-0.135123
-0.161145
-0.0904079
-0.148909
-0.0732535
-0.148868
-0.141962
-0.0896666
-0.199325
-0.17491
-0.169292
-0.161037
-0.0528994
-0.136243
-0.102972
-0.104726
-0.0800087
-0.0746509
-0.192262
-0.132568
-0.14396
-0.126917
-0.160632
-0.102614
-0.0887338
-0.0979914
-0.154217
-0.0400716
-0.127823
-0.117864
-0.0844721
-0.104804
-0.134779
-0.0505347
-0.07432
-0.0380649
-0.0684822
-0.0767828
-0.0719354
-0.0419297
-0.0601584
-0.149064
-0.145141
-0.0643134
-0.118994
-0.150217
-0.0869931
-0.149752
-0.0710476
0.0422716
0.0422619
0.0294441
-0.00869227
-0.00789503
0.100178
0.0708784
0.0594853
0.0203889
-0.0976716
-0.115695
-0.0462329
-0.137028
-0.0981506
-0.13944
-0.115546
-0.0748671
-0.0677242
-0.10731
-0.129223
-0.0924481
-0.124974
-0.0844803
-0.117869
-0.094602
-0.124583
-0.130837
-0.0981852
-0.120509
-0.00973847
-0.105129
-0.0836333
0.0885418
-0.1191
-0.0230663
-0.0228716
-0.0280173
-0.0277576
0.0429066
0.00741004
-0.0316846
0.0446938
-0.0375771
0.0672567
-0.0310987
-0.00637965
-0.0760152
0.0373716
0.023486
-0.0568635
0.0615921
-0.0473021
-0.0959797
-0.101943
-0.0899185
-0.0141822
-0.204379
-0.0385682
-0.158143
-0.0936022
-0.114636
-0.170546
-0.0806615
-0.152142
0.0188226
-0.0704237
-0.110443
-0.0565233
-0.152946
-0.106798
-0.0461726
-0.138184
-0.0164175
-0.186458
-0.0652204
-0.0584812
-0.165138
-0.0264936
-0.199913
-0.185417
-0.0384477
-0.0970219
-0.0507823
-0.0109787
-0.0730468
-0.144067
-0.195743
-0.0237791
-0.08366
-0.088033
-0.0594986
-0.0321355
-0.0218529
-0.0687029
-0.141823
0.00109421
-0.0416481
-0.0288299
-0.0509236
-0.0420309
-0.028543
-0.0512412
-0.0172921
0.00656563
-0.0241847
-0.0640914
-0.0936727
-0.082292
-0.0829084
-0.00211731
0.0959921
-0.0591078
-0.0201163
0.0308293
0.0358261
-0.0366177
-0.0990893
0.0813091
-0.0226664
0.00917592
-0.053468
0.0207026
-0.0467483
-0.00293525
0.0128124
-0.0393626
-0.0139886
0.0791219
-0.119931
-0.0472646
-0.0041465
0.0125539
-0.0403521
-0.0132705
0.0797593
-0.120106
-0.0480284
-0.0054217
0.0472308
-0.0196174
-0.0782138
-0.0698597
0.0510144
0.0628716
0.0593987
0.0267442
-0.0477131
-0.0779791
-0.154369
-0.175341
-0.179478
-0.188128
-0.18553
-0.193398
-0.206958
-0.187993
-0.187898
-0.200602
-0.159491
-0.160157
-0.170844
-0.14934
-0.193969
-0.217122
-0.143918
-0.141521
-0.179809
-0.186807
-0.199018
-0.150037
-0.167504
-0.173469
-0.170764
-0.254282
-0.296768
-0.142858
-0.15101
-0.15484
-0.150769
-0.156149
-0.150073
-0.156304
-0.168074
-0.141345
-0.150781
-0.155658
-0.13691
-0.193499
-0.213133
-0.152759
-0.140609
-0.164705
-0.178479
-0.146789
-0.151669
-0.161862
-0.167761
-0.17288
-0.181101
-0.144031
-0.167812
-0.182315
-0.150449
-0.1548
-0.164798
-0.147212
-0.147727
-0.157528
-0.160242
-0.161149
-0.173474
-0.171858
-0.137963
-0.140328
-0.141576
-0.201428
-0.174564
-0.214498
-0.235318
-0.184223
-0.17652
-0.181647
-0.180296
-0.192379
-0.189833
-0.171513
-0.156279
-0.207984
-0.238227
-0.161283
-0.1603
-0.165223
-0.183848
-0.191886
-0.203502
-0.168195
-0.172834
-0.185892
-0.165712
-0.213725
-0.238721
-0.1663
-0.167647
-0.175097
-0.1587
-0.174947
-0.184562
-0.145313
-0.153772
-0.162065
-0.167472
-0.204221
-0.22896
-0.151333
-0.167388
-0.178887
-0.129827
-0.126378
-0.134325
-0.155422
-0.158617
-0.165145
-0.162134
-0.168154
-0.177196
-0.149895
-0.189045
-0.207412
-0.178078
-0.220456
-0.245023
-0.160278
-0.190817
-0.205834
-0.196418
-0.205835
-0.221233
-0.12575
-0.121653
-0.127316
-0.162692
-0.167577
-0.18058
-0.152534
-0.16098
-0.169563
-0.150363
-0.152954
-0.161645
-0.164792
-0.166534
-0.178639
-0.123732
-0.121872
-0.12832
-0.163851
-0.178189
-0.18589
-0.162807
-0.241315
-0.278569
-0.150129
-0.165198
-0.172146
-0.127138
-0.125695
-0.133181
-0.12731
-0.125459
-0.132037
-0.152695
-0.158185
-0.171973
-0.128324
-0.130978
-0.14297
-0.0912163
-0.0851621
-0.0913192
-0.157736
-0.168468
-0.176822
-0.13973
-0.141013
-0.141379
-0.14684
-0.158962
-0.1671
-0.166445
-0.188258
-0.200867
-0.174471
-0.275901
-0.338478
-0.114589
-0.123856
-0.126226
-0.161231
-0.234007
-0.263889
-0.144485
-0.164494
-0.171973
-0.119165
-0.130358
-0.132438
-0.157483
-0.267365
-0.332255
-0.123988
-0.130534
-0.140263
-0.122687
-0.123465
-0.131361
-0.115595
-0.122379
-0.130775
-0.0812297
-0.0767093
-0.0800247
-0.150494
-0.144088
-0.158315
-0.168823
-0.147727
-0.160574
-0.174653
-0.142499
-0.152663
-0.165373
-0.134522
-0.143907
-0.15642
-0.146697
-0.158113
-0.17316
0.0309654
-0.0608927
0.0721474
0.0210581
0.0326397
-0.0120061
0.0721785
0.0205664
0.0328982
-0.0117032
0.0612292
0.00590765
-0.000562476
0.0557481
-0.00694295
0.00641154
-0.0216557
-0.0457644
-0.0457135
-0.0140922
-0.0331474
-0.02752
0.00805777
0.078854
0.0603167
-0.0752512
-0.0774289
-0.0765899
-0.10195
-0.0550224
-0.0101449
-0.0697477
-0.072851
-0.0538427
-0.0522184
-0.0162803
-0.0561755
-0.0222373
-0.0686792
-0.0297479
-0.0337806
-0.030399
-0.0184826
-0.0453459
0.00398852
-0.0791451
-0.0829494
-0.0904591
-0.100993
-0.102402
-0.0987394
-0.109507
-0.110987
-0.124016
-0.107063
0.0209736
0.0473722
0.0567161
0.0684612
0.0736269
0.029956
0.023479
0.0261437
0.0259137
0.027002
0.054672
0.0772125
0.0941413
0.100376
0.0961753
0.0807111
0.088223
0.0945961
0.0981305
0.0988707
0.111549
0.110303
0.109976
0.110706
0.111542
0.145446
0.132488
0.123269
0.119224
0.118607
0.178182
0.150605
0.126728
0.114683
0.110542
0.201429
0.158499
0.119949
0.087645
0.0747839
0.205387
0.15102
0.0922638
0.022384
0.0595198
0.18533
0.137209
0.0708102
-0.0452591
-0.061698
0.021938
0.0224375
0.0248756
0.0127446
0.0135568
0.0210537
0.0235371
0.0301485
0.0268629
0.0285773
0.0380725
0.0381006
0.0394321
0.0414754
0.0548793
0.0564624
0.0563443
0.0644243
0.0649954
0.0670137
0.0675384
0.0812993
0.0831071
0.0833185
0.0943483
0.0949649
0.095847
0.0960441
0.112023
0.111221
0.111133
0.127621
0.127886
0.124635
0.124172
0.145227
0.138788
0.137783
0.161386
0.160761
0.150274
0.1486
0.177166
0.163251
0.16102
0.188297
0.18673
0.164628
0.161494
0.199487
0.178007
0.174399
0.204071
0.201743
0.174899
0.170442
0.202616
0.174385
0.169654
0.197173
0.194491
0.166948
0.162207
0.183053
0.159059
0.155037
0.0741231
0.0556221
0.0500878
0.0708692
0.0705816
0.0701546
0.0694648
0.0869479
0.059426
0.0500956
0.0768917
0.0755319
0.0730139
0.0720146
0.0897959
0.0697955
0.0584456
0.0791852
0.0775418
0.0757236
0.0746477
0.0839944
0.0840099
0.0718444
0.0795076
0.07808
0.0780866
0.0770371
0.0878105
0.0850498
0.0839349
0.0965774
0.0964899
0.0961021
0.0956435
0.0931994
0.08809
0.0862974
0.0989852
0.0983894
0.097344
0.0967777
0.0961725
0.0923873
0.0902422
0.100706
0.100164
0.0994014
0.0989603
0.096625
0.0966431
0.0943585
0.101729
0.101291
0.101265
0.10087
0.110064
0.108578
0.108103
0.121009
0.120478
0.117922
0.117226
0.109497
0.108051
0.10754
0.116582
0.115965
0.114598
0.114037
0.110311
0.10956
0.109191
0.115105
0.114776
0.114439
0.114237
0.111251
0.111257
0.110974
0.115323
0.115249
0.115183
0.115142
0.131584
0.126897
0.125895
0.140699
0.139267
0.131985
0.130486
0.122545
0.120015
0.119442
0.125922
0.124845
0.120873
0.119834
0.11883
0.118252
0.11792
0.118292
0.117516
0.11656
0.116013
0.118404
0.118416
0.118232
0.116231
0.115991
0.115943
0.115555
0.148307
0.136639
0.13427
0.151242
0.149446
0.137986
0.13497
0.124889
0.119517
0.118213
0.12327
0.120618
0.11134
0.108758
0.11356
0.111841
0.110815
0.103556
0.102057
0.0978281
0.0962364
0.11006
0.110003
0.109397
0.0955059
0.0949601
0.0947653
0.0932615
0.154754
0.134954
0.131482
0.15339
0.149537
0.127848
0.123333
0.116519
0.103204
0.0994765
0.104846
0.100509
0.0823507
0.0772633
0.0850932
0.0809253
0.0782221
0.0614434
0.0595752
0.041887
0.0380237
0.0745454
0.0744195
0.0737264
0.0367813
0.0181776
0.018247
0.00549891
0.146394
0.120686
0.115254
0.143945
0.139081
0.111055
0.105552
0.0855078
0.0625068
0.051351
0.0827594
0.0753085
0.0308836
0.0218199
0.0131962
-0.00774478
-0.0503109
0.0505925
0.0100939
-0.0756057
-0.139054
-0.00512249
-0.00486495
-0.0214906
-0.0639666
0.132673
0.106211
0.103982
0.0589715
0.0154594
0.0667507
-0.0235142
-0.0956236
-0.0989582
-0.0257148
-0.0904486
-0.0808833
-0.118727
-0.0840194
-0.0709968
-0.0346011
-0.114431
-0.0629494
0.00260115
-0.0255535
-0.0433457
-0.0211078
-0.0332338
-0.0698045
-0.0628622
0.002961
-0.025601
-0.0437627
-0.0210121
-0.0332159
-0.0709215
-0.0554826
-0.0169934
-0.017096
-0.0731309
-0.0121873
-0.0628728
-0.0625501
-0.09
-0.0488968
-0.154013
-0.148705
-0.0561473
-0.0561239
-0.0737035
-0.0575873
-0.039425
-0.0875909
-0.0733325
-0.056941
-0.0397835
-0.0900691
-0.0747652
-0.101266
-0.0997723
-0.150138
-0.0195853
-0.0915608
-0.039782
-0.0932336
-0.0278275
-0.171186
-0.10701
-0.0841927
-0.184673
-0.0663483
-0.0260372
-0.170368
-0.085102
-0.0245396
-0.187705
-0.189193
0.167333
0.165535
0.148557
0.144792
0.131178
0.126561
0.107217
-0.0503359
-0.0175063
-0.034428
-0.063821
-0.106305
-0.0440548
-0.0380626
-0.0452655
-0.0807237
-0.0735906
-0.127035
-0.085298
-0.0601238
-0.00299853
-0.00255443
-0.00683821
-0.0578537
-0.0364627
-0.0366813
0.0242213
-0.00919453
-0.0867505
0.00213353
-0.0320433
-0.0530642
-0.07897
-0.162148
-0.172943
-0.215796
-0.0313196
-0.0620303
-0.0252204
-0.106356
-0.00486832
-0.0884199
-0.0613628
-0.0714214
-0.139978
-0.0935776
-0.133584
-0.130354
-0.091062
-0.0799896
-0.107337
-0.120368
-0.116291
-0.119684
-0.116664
-0.0784048
-0.141336
-0.137026
-0.110639
-0.0852217
-0.138039
-0.113794
-0.0628577
-0.0566288
-0.134033
-0.0998153
-0.119599
-0.134354
-0.0811684
-0.0193524
-0.0644758
-0.0650639
-0.0534163
-0.0534017
-0.0650487
-0.0511617
-0.0636859
-0.0704563
-0.0705919
-0.0679461
-0.0575768
-0.0575314
-0.0651385
-0.0606337
-0.0497769
-0.0684881
-0.0425327
-0.0660391
-0.0707248
-0.0651129
-0.0606814
-0.0492906
-0.069053
-0.0424397
-0.0658979
-0.0708056
-0.054369
-0.0864461
-0.0859924
-0.153205
-0.057277
-0.0810312
-0.0810716
-0.0958991
-0.0624431
-0.0671124
-0.149677
-0.0889808
-0.132186
-0.0973254
-0.0661186
-0.0702149
-0.151827
-0.0910875
-0.13229
-0.143779
-0.143821
-0.0676257
-0.0843493
-0.0712915
-0.106686
-0.111481
-0.0761066
-0.0513216
-0.1035
-0.0719437
-0.0967809
-0.114718
-0.0812051
-0.114602
-0.156471
-0.0897611
-0.0969779
-0.0627416
-0.0753686
-0.0765003
-0.110039
-0.0667646
-0.0843021
-0.0731995
-0.0690289
-0.136549
-0.0672855
-0.0846363
-0.0698835
-0.103337
-0.108675
-0.0762985
-0.0515882
-0.102621
-0.0714323
-0.0986316
-0.116403
-0.0906723
-0.112426
-0.155675
-0.0918343
-0.0977282
-0.0631908
-0.0750311
-0.0746605
-0.112999
-0.0661498
-0.0852174
-0.0702706
-0.0704855
-0.0890216
-0.0896771
-0.125495
-0.100301
-0.0998284
-0.185308
-0.234506
-0.15412
-0.109895
-0.0856629
-0.0611984
-0.163514
-0.0987312
-0.180885
-0.137043
-0.162644
-0.121849
-0.0965597
-0.23936
-0.109925
-0.157817
-0.0844876
-0.0886244
-0.161037
-0.0866526
-0.154664
-0.161909
-0.168058
-0.0525951
-0.100983
-0.120073
-0.144032
-0.167137
-0.0748851
-0.0609892
-0.160166
-0.0598215
-0.137367
-0.147856
-0.145272
-0.149214
-0.163434
-0.0914344
-0.0720511
-0.150702
-0.150694
-0.08873
-0.144539
-0.199623
-0.176802
-0.166523
-0.163346
-0.141676
-0.0977302
-0.153666
-0.220635
-0.111261
-0.0844744
-0.0710997
-0.137018
-0.0491024
-0.0719662
-0.0375823
-0.0610419
-0.0406702
-0.0711387
-0.0758955
-0.059089
-0.150207
-0.140578
-0.0642244
-0.106789
-0.119737
-0.0781444
-0.196113
-0.129366
-0.143307
-0.12045
-0.0996728
-0.158564
-0.0962024
-0.0820007
-0.0959011
-0.155769
-0.0399661
-0.128536
-0.118557
-0.153356
-0.0835706
-0.121587
-0.0702767
0.100132
0.0707171
0.0592138
0.0205148
-0.096666
-0.136907
-0.0885115
-0.132396
-0.0575973
-0.0658038
-0.102553
-0.163005
-0.116885
-0.0959188
-0.124393
-0.133982
-0.0980359
-0.0823584
-0.122679
-0.0381857
-0.134125
-0.144199
-0.0409236
-0.0462485
-0.0430839
-0.0862517
-0.108521
-0.106581
-0.122798
-0.00806096
-0.217648
-0.166326
-0.186619
-0.105758
-0.0856385
-0.21574
-0.165318
-0.179317
0.0609943
0.0236777
0.0102151
0.0101492
0.0139623
0.0430162
0.0430814
0.00737904
0.044645
-0.0322862
-0.0374544
0.0668704
-0.0310451
-0.0066428
-0.0758824
0.0374265
0.0229664
-0.057304
0.0617184
-0.0474615
-0.0957304
-0.0362689
-0.047811
-0.0516402
-0.0739977
-0.0133817
-0.07463
-0.0649856
-0.0281524
-0.0680731
-0.0706827
-0.062184
-0.0638565
-0.0611794
-0.0334497
-0.036166
-0.0479035
-0.0513989
-0.07398
-0.0132044
-0.074739
-0.0650595
-0.028061
-0.0684683
-0.0707157
-0.0618413
-0.0639511
-0.0615964
-0.0332507
-0.0818145
-0.128735
-0.0190687
-0.0800496
-0.0899337
-0.05753
-0.0814281
-0.083884
-0.129356
-0.0190022
-0.0796959
-0.0905275
-0.0582073
-0.0820995
-0.0559105
-0.0247531
-0.102496
-0.0464993
-0.138261
-0.0163155
-0.187612
-0.16499
-0.0581185
-0.0653713
-0.0262528
-0.200799
-0.184996
-0.0388347
-0.102588
-0.0899737
-0.0153318
-0.20652
-0.0396147
-0.161834
-0.096562
-0.0817812
-0.171399
-0.119486
-0.146261
0.0186979
-0.0678397
-0.108952
-0.0951272
-0.08939
-0.0111823
-0.144078
-0.0732547
-0.195421
-0.0235798
-0.0552259
-0.152468
-0.0843488
-0.0868215
-0.12688
-0.0604734
-0.0322757
-0.0622444
-0.159369
-0.131313
-0.0739097
-0.219437
-0.140191
0.00683431
-0.0174511
-0.0240277
-0.0639863
-0.0968287
-0.0845517
-0.0820805
0.0308123
0.0675864
0.0279734
0.00666142
0.0879558
0.00762036
0.016384
0.030566
0.0676647
0.0284468
0.00656374
0.0878053
0.00807008
0.0164952
-0.0012845
0.0951306
-0.0599289
-0.0195728
0.0302439
0.0369395
-0.0359845
-0.0993691
0.0809385
0.0090546
-0.0220099
0.020252
-0.0533589
-0.0467163
0.0476448
-0.00549201
-0.0195357
-0.0783327
0.0521457
-0.0704006
0.0638174
0.0601306
0.0268931
-0.0470989
-0.0779071
-0.152283
-0.156265
-0.167415
-0.154795
-0.171939
-0.182611
-0.152188
-0.155576
-0.166548
-0.170712
-0.181415
-0.125737
-0.142694
-0.155303
-0.129674
-0.146106
-0.158704
-0.167281
-0.170585
-0.17779
-0.171691
-0.192988
-0.208265
-0.172951
-0.171727
-0.180916
-0.174141
-0.197489
-0.21232
-0.160484
-0.158753
-0.165216
-0.131278
-0.134824
-0.142458
-0.170192
-0.197025
-0.213578
-0.119829
-0.120206
-0.125451
-0.172448
-0.199706
-0.21611
-0.0951033
-0.103205
-0.11021
-0.142226
-0.14512
-0.153005
-0.153177
-0.14912
-0.154004
-0.135021
-0.137789
-0.14423
-0.154679
-0.151892
-0.157521
-0.122191
-0.136259
-0.149066
-0.129296
-0.150317
-0.165273
-0.110692
-0.1195
-0.12705
-0.12064
-0.133937
-0.146393
-0.151255
-0.177685
-0.196634
-0.117069
-0.12737
-0.136154
-0.103394
-0.112623
-0.119715
-0.103744
-0.107981
-0.1148
-0.105798
-0.115332
-0.123614
-0.101198
-0.105405
-0.111332
-0.105405
-0.114008
-0.121671
-0.179858
-0.184287
-0.192329
-0.174318
-0.207621
-0.229895
-0.192238
-0.187859
-0.199743
-0.186394
-0.190567
-0.198567
-0.163785
-0.202976
-0.223686
-0.151957
-0.154123
-0.165071
-0.148756
-0.146858
-0.153185
-0.190992
-0.199847
-0.213501
-0.17912
-0.183459
-0.191262
-0.21241
-0.258214
-0.287393
-0.14836
-0.152647
-0.165452
-0.171915
-0.17146
-0.184968
-0.195576
-0.126428
-0.132825
-0.134878
-0.14854
-0.208348
-0.230817
-0.164934
-0.194809
-0.19302
-0.196808
-0.146369
-0.178142
-0.201915
-0.17427
-0.17935
-0.189964
-0.198054
-0.19401
-0.198083
-0.150778
-0.177913
-0.199761
-0.170205
-0.173269
-0.182977
-0.176764
-0.175252
-0.186976
-0.178843
-0.178361
-0.190167
-0.164391
-0.184956
-0.197062
-0.169172
-0.173428
-0.188416
-0.165535
-0.170504
-0.185022
-0.145917
-0.149771
-0.160037
-0.15259
-0.170701
-0.181594
-0.14747
-0.150824
-0.161548
-0.169702
-0.18037
-0.147507
-0.151416
-0.159404
-0.138457
-0.150966
-0.160394
-0.148696
-0.152856
-0.160727
-0.124949
-0.141348
-0.153612
-0.137135
-0.149563
-0.159054
-0.139148
-0.141491
-0.14816
-0.141172
-0.153937
-0.163191
-0.14614
-0.148965
-0.156238
-0.131599
-0.148565
-0.161476
-0.136684
-0.149024
-0.158576
-0.151103
-0.178737
-0.194878
-0.138954
-0.141589
-0.150833
-0.149534
-0.174788
-0.190268
-0.158896
-0.162507
-0.169403
-0.150962
-0.155374
-0.165937
-0.127546
-0.150563
-0.163756
-0.161583
-0.163629
-0.175815
-0.145399
-0.166212
-0.178391
-0.176653
-0.186932
-0.198236
-0.137178
-0.163944
-0.179279
-0.147402
-0.147841
-0.155862
-0.144443
-0.166062
-0.179258
-0.156718
-0.164273
-0.17336
-0.134659
-0.185612
-0.203425
-0.178937
-0.183609
-0.190638
-0.163883
-0.1689
-0.173161
-0.16063
-0.175015
-0.183469
-0.163504
-0.179319
-0.188061
-0.180431
-0.181893
-0.189108
-0.175415
-0.176216
-0.182836
-0.147728
-0.15119
-0.160618
-0.165629
-0.186882
-0.199496
-0.148124
-0.151186
-0.161389
-0.164047
-0.185076
-0.197863
-0.0950807
-0.10317
-0.110122
-0.0948938
-0.102932
-0.109904
-0.0946351
-0.102269
-0.108829
-0.102963
-0.111353
-0.118988
-0.108915
-0.118559
-0.127227
-0.103957
-0.112511
-0.120226
-0.107409
-0.11678
-0.125257
-0.151337
-0.161356
-0.171973
-0.135945
-0.13545
-0.143946
-0.136328
-0.135818
-0.144286
-0.136966
-0.154362
-0.167311
-0.136617
-0.153859
-0.16677
-0.162654
-0.163369
-0.170526
-0.157367
-0.174337
-0.189114
-0.148716
-0.146861
-0.154877
-0.142088
-0.142356
-0.148774
-0.159458
-0.160601
-0.168195
-0.155658
-0.17193
-0.186056
-0.146989
-0.146512
-0.154321
-0.143731
-0.145125
-0.15196
-0.140897
-0.158026
-0.173653
-0.146794
-0.148224
-0.156091
-0.141838
-0.143117
-0.150291
-0.114918
-0.113994
-0.11906
-0.154193
-0.169607
-0.181305
-0.122491
-0.127658
-0.13429
-0.107872
-0.109702
-0.114833
-0.121372
-0.132572
-0.141136
-0.134471
-0.149515
-0.160236
-0.117286
-0.118616
-0.125712
-0.121537
-0.124254
-0.131724
-0.146899
-0.148446
-0.154487
-0.155664
-0.156563
-0.162207
-0.135304
-0.149667
-0.160456
-0.136816
-0.153708
-0.165685
-0.156449
-0.173569
-0.187461
-0.126264
-0.122556
-0.128519
-0.124946
-0.139101
-0.150491
-0.111646
-0.120758
-0.128102
-0.119401
-0.131521
-0.141308
-0.130703
-0.131107
-0.138273
-0.137743
-0.149906
-0.159476
-0.117375
-0.122639
-0.129347
-0.11331
-0.116248
-0.121996
-0.120349
-0.130685
-0.139274
-0.129585
-0.142995
-0.152872
-0.108407
-0.108046
-0.112912
-0.126209
-0.129678
-0.137949
-0.131802
-0.130418
-0.133023
-0.14634
-0.147318
-0.152109
-0.149637
-0.167175
-0.180024
-0.141941
-0.159188
-0.171545
-0.151123
-0.164626
-0.176037
-0.140981
-0.139422
-0.147804
-0.124664
-0.139624
-0.152216
-0.11153
-0.120595
-0.128137
-0.112574
-0.12333
-0.132071
-0.128183
-0.138305
-0.147626
-0.101657
-0.110238
-0.11815
-0.10321
-0.112065
-0.120126
-0.103548
-0.108282
-0.113965
-0.102379
-0.1071
-0.112793
-0.0987254
-0.1019
-0.107835
-0.107431
-0.116677
-0.124707
-0.100125
-0.103417
-0.109722
-0.106194
-0.115315
-0.123311
-0.153421
-0.154459
-0.165585
-0.19474
-0.194844
-0.209719
-0.180637
-0.18837
-0.200774
-0.158421
-0.159071
-0.169938
-0.179429
-0.189754
-0.197062
-0.155938
-0.163744
-0.168871
-0.154535
-0.197414
-0.220189
-0.155852
-0.193291
-0.210741
-0.185451
-0.183859
-0.197085
-0.158616
-0.220406
-0.256134
-0.179315
-0.18174
-0.189221
-0.145537
-0.194117