/*--------------------------------*- C++ -*----------------------------------*\
| =========                 |                                                 |
| \\      /  F ield         | OpenFOAM: The Open Source CFD Toolbox           |
|  \\    /   O peration     | Version:  2.3.1                                 |
|   \\  /    A nd           | Web:      www.OpenFOAM.org                      |
|    \\/     M anipulation  |                                                 |
\*---------------------------------------------------------------------------*/
FoamFile
{
    version     2.0;
    format      ascii;
    class       volScalarField;
    location    "3000/fluid";
    object      p_0;
}
// * * * * * * * * * * * * * * * * * * * * * * * * * * * * * * * * * * * * * //

dimensions      [1 -1 -2 0 0 0 0];

internalField   nonuniform List<scalar> 
25373
(
0.0237668
0.0450204
0.0237501
0.0490423
0.0507596
0.0449486
0.0507466
0.064165
0.020921
0.0473153
0.056711
0.0684501
0.0311122
0.0219057
0.0311046
0.0236529
0.0266876
0.0219194
0.0266983
0.0237226
0.0299366
0.0235521
0.0261506
0.0259274
0.0595512
0.0737476
0.0595399
0.0814899
0.092747
0.0737162
0.0927801
0.102385
0.0546474
0.0772567
0.0941202
0.100383
0.08454
0.0872427
0.0845272
0.089787
0.0937225
0.0872386
0.093761
0.0974306
0.0808533
0.0883723
0.0947571
0.0981863
0.11434
0.111784
0.114345
0.111773
0.110786
0.111826
0.110826
0.110594
0.111898
0.110491
0.110234
0.110836
0.14637
0.137219
0.146364
0.13414
0.126954
0.137225
0.127008
0.121289
0.145856
0.132674
0.123386
0.119314
0.177419
0.160003
0.177296
0.153163
0.135771
0.160096
0.13564
0.12097
0.178466
0.150617
0.126532
0.114646
0.198128
0.172889
0.198114
0.162908
0.133331
0.172803
0.133153
0.106144
0.201473
0.158557
0.119954
0.0875402
0.199846
0.168191
0.199825
0.155113
0.118023
0.16818
0.117866
0.0664972
0.205425
0.151051
0.0922819
0.0220705
0.180232
0.153696
0.180257
0.141548
0.103153
0.153709
0.103117
0.0318044
0.185339
0.137221
0.0708759
-0.00901464
0.0156245
0.00838511
0.0167819
0.0170724
0.0231577
0.00791122
0.0166336
0.0208962
0.018943
0.0189484
0.0243224
0.0108075
0.0108076
0.0171898
0.023206
0.0256104
0.0276053
0.016279
0.0187933
0.0211547
0.026546
0.0156
0.00834977
0.0255857
0.0231737
0.0275877
0.016267
0.0211494
0.0187675
0.026544
0.0170354
0.0167215
0.0230981
0.0166233
0.00781352
0.020835
0.0223851
0.0218966
0.0248279
0.0126782
0.0210318
0.013516
0.0235141
0.0295402
0.0366675
0.024638
0.0273511
0.0313698
0.0336337
0.0380247
0.0425517
0.0299499
0.029965
0.0340932
0.0369102
0.0369276
0.0416436
0.0292929
0.0267579
0.0293618
0.0401695
0.0380355
0.0369476
0.0421898
0.02949
0.0366428
0.0267336
0.029284
0.0293614
0.0401579
0.0369311
0.0380313
0.0422016
0.0273018
0.0246131
0.0313202
0.0380307
0.0336128
0.0425348
0.026815
0.0301378
0.028529
0.0380475
0.039445
0.038077
0.0414636
0.0467913
0.0593921
0.0488537
0.053585
0.0556023
0.0591011
0.0653723
0.0670734
0.0521156
0.0521423
0.0556063
0.0632275
0.06325
0.0677307
0.0571448
0.0570771
0.0511957
0.0676432
0.0678277
0.0671027
0.0658727
0.0467962
0.0593922
0.0570552
0.0571457
0.0511898
0.0676307
0.0670868
0.0678293
0.0658782
0.0535932
0.048824
0.0555646
0.0653656
0.0590293
0.0670162
0.0564652
0.0548682
0.0563572
0.0643423
0.0669372
0.0649205
0.0674588
0.0749812
0.0900105
0.0750167
0.0814835
0.0828835
0.0888832
0.0958288
0.0965457
0.0799062
0.0799246
0.0840046
0.0943135
0.0943304
0.0982724
0.0844675
0.0837684
0.0808799
0.0974849
0.0978839
0.0960093
0.094069
0.0750049
0.090023
0.0837531
0.0844703
0.0808977
0.0974781
0.0959883
0.0978883
0.0940688
0.0815164
0.075119
0.0830046
0.0958885
0.0891269
0.0967274
0.0832632
0.0814598
0.083503
0.0945857
0.0959547
0.0951676
0.0961609
0.107534
0.124204
0.106313
0.112707
0.112913
0.12284
0.128268
0.127745
0.111967
0.11199
0.115033
0.128417
0.128443
0.130212
0.114201
0.111315
0.108656
0.12963
0.128808
0.124374
0.12108
0.107575
0.124245
0.111308
0.114253
0.108695
0.129612
0.124338
0.128817
0.12107
0.112813
0.106652
0.113152
0.128393
0.123225
0.127971
0.111414
0.112332
0.111357
0.127991
0.124736
0.128189
0.124299
0.142519
0.158904
0.141493
0.145119
0.143723
0.158362
0.159568
0.157221
0.146738
0.146747
0.146412
0.162548
0.162487
0.160164
0.144345
0.138182
0.133599
0.160846
0.15746
0.149368
0.143178
0.142677
0.159089
0.138192
0.144369
0.133695
0.160775
0.149364
0.157384
0.143168
0.145296
0.141906
0.143949
0.159693
0.158727
0.157329
0.138928
0.145586
0.137913
0.161638
0.150249
0.160939
0.148647
0.177623
0.188603
0.177596
0.175833
0.1723
0.1903
0.183859
0.178431
0.180843
0.180651
0.175393
0.191051
0.190871
0.180445
0.172297
0.162924
0.154997
0.184935
0.175798
0.162542
0.154696
0.177782
0.188673
0.162949
0.172294
0.154957
0.184814
0.162685
0.175807
0.154875
0.176065
0.177973
0.17237
0.183838
0.190701
0.178385
0.163212
0.177429
0.161031
0.188298
0.164541
0.186739
0.161349
0.203639
0.207285
0.205185
0.196591
0.190439
0.209943
0.19755
0.189789
0.205238
0.205254
0.193438
0.207341
0.207337
0.192009
0.189925
0.177898
0.166668
0.198833
0.187302
0.173752
0.161397
0.203706
0.207303
0.177841
0.189879
0.166564
0.198824
0.17376
0.18731
0.161465
0.196555
0.205355
0.190419
0.197512
0.210038
0.189797
0.178063
0.199564
0.174511
0.20409
0.174863
0.201734
0.170437
0.210063
0.202579
0.213593
0.197974
0.189647
0.20674
0.18962
0.181239
0.209521
0.209518
0.191939
0.201204
0.201206
0.183027
0.186959
0.173702
0.160473
0.191346
0.178259
0.166366
0.15318
0.210099
0.202623
0.173699
0.186947
0.160463
0.191338
0.166378
0.178275
0.153238
0.197967
0.213649
0.189629
0.189624
0.206769
0.181235
0.174345
0.202619
0.16962
0.197212
0.16693
0.194489
0.162186
0.19127
0.195451
0.178446
0.17105
0.189136
0.189216
0.172107
0.16811
0.158862
0.146764
0.191259
0.158832
0.168121
0.14676
0.178432
0.195424
0.171019
0.159028
0.183034
0.154986
0.0662036
0.0583398
0.0472647
0.069498
0.0674204
0.0686839
0.0678214
0.0663709
0.0664112
0.0438295
0.0717348
0.0703314
0.0703364
0.0679187
0.0770692
0.0661479
0.0438756
0.0758011
0.0730619
0.0724469
0.0701488
0.0582834
0.0662023
0.0472092
0.0694724
0.0686673
0.0673801
0.0677759
0.0661129
0.0770978
0.04387
0.0758118
0.0724354
0.0730572
0.0701451
0.0771051
0.0771552
0.0483423
0.078946
0.0750558
0.0750638
0.0724857
0.0555222
0.0741599
0.0499618
0.0707973
0.0700743
0.0705313
0.069408
0.0593828
0.0868721
0.0500581
0.0768583
0.0730018
0.075524
0.0720156
0.0697557
0.08981
0.0584395
0.0791661
0.0756991
0.0775293
0.0746354
0.084606
0.0847423
0.0824831
0.0969683
0.0946645
0.0958644
0.0950808
0.0872833
0.0873055
0.0823409
0.0977874
0.0968134
0.096804
0.0948155
0.0903112
0.0885521
0.0839279
0.0987282
0.0973977
0.0970686
0.0958067
0.0847416
0.084679
0.0825389
0.0969648
0.0958282
0.0947121
0.095084
0.0885503
0.0903814
0.0839645
0.098707
0.0970458
0.09731
0.0957303
0.092414
0.0924618
0.0868176
0.100069
0.0987441
0.0987322
0.0974654
0.0852047
0.0879893
0.0841088
0.0966453
0.0961189
0.0965628
0.0957343
0.0881551
0.0932829
0.0863459
0.0988865
0.0972192
0.0983294
0.0966218
0.0923825
0.0962408
0.0902651
0.100659
0.0993903
0.100051
0.09891
0.109097
0.109473
0.10821
0.123988
0.120827
0.120222
0.118562
0.110083
0.1101
0.107403
0.122474
0.119907
0.119876
0.116597
0.109134
0.108652
0.107082
0.118607
0.116777
0.116002
0.11456
0.10949
0.1092
0.108316
0.124033
0.120206
0.120908
0.118588
0.108678
0.109212
0.107152
0.118581
0.116005
0.116729
0.11449
0.10924
0.10928
0.107986
0.115805
0.114687
0.114625
0.113834
0.108778
0.110252
0.108288
0.121102
0.117944
0.120575
0.117271
0.108285
0.109734
0.107761
0.116561
0.114539
0.116016
0.11404
0.109635
0.110444
0.10928
0.114988
0.114419
0.114649
0.11418
0.133479
0.131034
0.128526
0.147671
0.143131
0.138602
0.134934
0.129978
0.129997
0.125168
0.142361
0.136335
0.136332
0.129672
0.124325
0.122979
0.120754
0.131453
0.127968
0.125573
0.122559
0.131097
0.133547
0.128611
0.147628
0.138551
0.143145
0.134845
0.12298
0.124381
0.120751
0.131467
0.125697
0.127882
0.122622
0.119533
0.119512
0.118219
0.122122
0.11947
0.119456
0.117266
0.127035
0.131694
0.125956
0.140728
0.131914
0.139303
0.130408
0.120155
0.122566
0.119473
0.125874
0.121013
0.124801
0.119986
0.118305
0.118823
0.117968
0.118354
0.116496
0.117618
0.115936
0.154761
0.147231
0.141457
0.160496
0.155177
0.148374
0.142718
0.143634
0.143556
0.13357
0.152641
0.146174
0.146273
0.134556
0.130351
0.126814
0.122098
0.136833
0.129358
0.123423
0.116386
0.147208
0.154821
0.141358
0.160321
0.148395
0.155048
0.142753
0.126751
0.130217
0.121966
0.136864
0.12363
0.129371
0.11651
0.117016
0.116858
0.11346
0.114223
0.107134
0.107149
0.101143
0.136627
0.148344
0.134217
0.151328
0.138091
0.149441
0.135043
0.119388
0.124667
0.118024
0.123361
0.111405
0.120791
0.108792
0.111918
0.113527
0.110799
0.103639
0.0980563
0.102115
0.0963087
0.166912
0.153127
0.144272
0.168802
0.162108
0.147503
0.137214
0.145526
0.145432
0.130433
0.157085
0.140653
0.140627
0.122221
0.125879
0.120198
0.110456
0.125805
0.113634
0.10487
0.0918012
0.153003
0.166887
0.1442
0.16884
0.147564
0.162268
0.137308
0.120194
0.125746
0.110384
0.125819
0.105048
0.113728
0.0919647
0.0951865
0.0949525
0.085235
0.0879407
0.0724609
0.0725199
0.0527863
0.134899
0.154867
0.131444
0.1535
0.127952
0.149651
0.12344
0.103215
0.116504
0.0994661
0.105005
0.0825354
0.101063
0.077114
0.0812831
0.0847455
0.0782389
0.0618024
0.0416969
0.0590068
0.0377932
0.161282
0.144245
0.132034
0.161032
0.154384
0.136655
0.123514
0.135976
0.135884
0.114027
0.147837
0.128139
0.128138
0.103904
0.103655
0.0928551
0.0748631
0.109286
0.0932171
0.0788394
0.0574196
0.144258
0.16129
0.131952
0.161071
0.136733
0.154433
0.123582
0.0927096
0.103397
0.0744515
0.109363
0.0790448
0.0933134
0.0581296
0.042122
0.0414275
0.0143034
0.0509407
0.0100466
0.00973928
-0.0677792
0.120684
0.146338
0.115084
0.144058
0.111175
0.139181
0.105616
0.0621453
0.0849991
0.05095
0.0830052
0.0307317
0.0754351
0.0222379
-0.00655043
0.0138715
-0.0501129
0.0502824
-0.0762087
0.0105679
-0.137613
0.14789
0.131128
0.118308
0.122972
0.122957
0.0986583
0.0886681
0.0736388
0.0455032
0.131146
0.147843
0.118252
0.0735443
0.0886594
0.0455578
0.0661575
0.0671011
-0.0500417
0.106153
0.13264
0.103755
0.0154437
0.0589541
0.0663824
-0.0233835
-0.0260462
-0.089725
-0.0806944
-0.0838349
-0.0700618
-0.034816
-0.228239
-0.0825173
-0.0980299
-0.0658522
-0.024749
-0.0252924
-0.0191095
-0.0911952
-0.0398669
-0.0925909
-0.027932
-0.170202
-0.0867725
-0.0246435
-0.182553
0.173184
0.176354
0.16268
0.155917
0.170555
0.170659
0.156506
0.163699
0.15371
0.148502
0.138879
0.173157
0.16375
0.148464
0.153728
0.138859
0.162664
0.176355
0.155913
0.167351
0.148567
0.165529
0.144791
0.14446
0.139611
0.126326
0.114479
0.134482
0.118575
0.118656
0.0966037
0.101022
0.0860723
0.0739344
0.144489
0.126312
0.13959
0.114457
0.101009
0.0738068
0.0861474
0.131264
0.107289
0.126627
-0.0404278
-0.100138
-0.0788301
-0.0796751
-0.0891668
-0.0177457
-0.0644969
-0.0346732
-0.1252
-0.117905
-0.0759043
-0.0705594
-0.0445868
-0.0384537
-0.0481878
-0.0855799
-0.0460397
0.024081
-0.0871905
0.00278174
-0.0528142
-0.0309962
-0.0787646
-0.0310124
-0.0607862
-0.0254974
-0.00459553
-0.0877224
-0.0614431
-0.0715882
-0.137248
-0.133342
-0.0922803
-0.129734
-0.0909189
-0.0801247
-0.0485326
-0.0115565
-0.11857
-0.060365
-0.0597905
-0.0142471
-0.142392
-0.136237
-0.0836457
-0.138051
-0.0611335
-0.0568761
-0.0981146
-0.172663
-0.105744
-0.155785
-0.111828
-0.0870191
-0.063444
-0.164735
-0.0956712
-0.135322
-0.167646
-0.112079
-0.0969855
-0.238806
-0.0952814
-0.174079
-0.0909871
-0.15954
-0.176387
-0.173664
-0.158924
-0.0510239
-0.112985
-0.0971183
-0.146827
-0.144359
-0.147696
-0.14494
-0.168881
-0.0725809
-0.0601504
-0.159859
-0.0582589
-0.135123
-0.161146
-0.0904082
-0.14891
-0.0732537
-0.148868
-0.141962
-0.0896669
-0.199325
-0.17491
-0.169292
-0.161037
-0.0528997
-0.136243
-0.102973
-0.104726
-0.080009
-0.0746511
-0.192262
-0.132568
-0.14396
-0.126917
-0.160632
-0.102614
-0.088734
-0.0979917
-0.154217
-0.0400719
-0.127823
-0.117864
-0.0844724
-0.104804
-0.134779
-0.050535
-0.0743203
-0.0380652
-0.0684825
-0.0767831
-0.0719357
-0.04193
-0.0601587
-0.149064
-0.145141
-0.0643137
-0.118995
-0.150217
-0.0869934
-0.149753
-0.0710479
0.0422713
0.0422616
0.0294438
-0.00869257
-0.00789533
0.100178
0.0708781
0.059485
0.0203886
-0.097672
-0.115696
-0.0462333
-0.137029
-0.0981509
-0.13944
-0.115546
-0.0748674
-0.0677245
-0.107311
-0.129223
-0.0924484
-0.124974
-0.0844807
-0.117869
-0.0946023
-0.124583
-0.130837
-0.0981855
-0.120509
-0.00973873
-0.105129
-0.0836336
0.0885416
-0.1191
-0.0230665
-0.0228718
-0.0280175
-0.0277578
0.0429064
0.00740982
-0.0316848
0.0446936
-0.0375774
0.0672565
-0.0310989
-0.00637987
-0.0760154
0.0373714
0.0234858
-0.0568637
0.0615918
-0.0473024
-0.0959799
-0.101943
-0.0899188
-0.0141825
-0.204379
-0.0385685
-0.158144
-0.0936025
-0.114636
-0.170546
-0.0806617
-0.152142
0.0188223
-0.070424
-0.110443
-0.0565236
-0.152947
-0.106798
-0.0461729
-0.138185
-0.0164178
-0.186458
-0.0652207
-0.0584815
-0.165138
-0.0264938
-0.199913
-0.185417
-0.038448
-0.0970222
-0.0507826
-0.010979
-0.0730471
-0.144067
-0.195743
-0.0237794
-0.0836603
-0.0880333
-0.0594988
-0.0321357
-0.0218531
-0.0687032
-0.141823
0.00109393
-0.0416484
-0.0288302
-0.0509239
-0.0420312
-0.0285433
-0.0512415
-0.0172924
0.00656533
-0.024185
-0.0640917
-0.093673
-0.0822924
-0.0829087
-0.00211753
0.0959919
-0.059108
-0.0201165
0.030829
0.0358258
-0.0366179
-0.0990896
0.0813088
-0.0226667
0.00917567
-0.0534682
0.0207024
-0.0467485
-0.00293553
0.0128121
-0.0393628
-0.0139889
0.0791216
-0.119931
-0.0472649
-0.00414678
0.0125536
-0.0403524
-0.0132708
0.079759
-0.120106
-0.0480287
-0.00542199
0.0472305
-0.0196177
-0.0782141
-0.06986
0.0510141
0.0628713
0.0593984
0.0267439
-0.0477134
-0.0779794
-0.154369
-0.175342
-0.179479
-0.188128
-0.18553
-0.193398
-0.206958
-0.187993
-0.187899
-0.200602
-0.159492
-0.160158
-0.170845
-0.14934
-0.193969
-0.217122
-0.143919
-0.141521
-0.179809
-0.186807
-0.199018
-0.150037
-0.167504
-0.173469
-0.170765
-0.254283
-0.296768
-0.142858
-0.15101
-0.154841
-0.150769
-0.15615
-0.150074
-0.156304
-0.168074
-0.141345
-0.150781
-0.155658
-0.136911
-0.193499
-0.213133
-0.152759
-0.140609
-0.164706
-0.178479
-0.146789
-0.15167
-0.161862
-0.167762
-0.17288
-0.181101
-0.144031
-0.167812
-0.182315
-0.150449
-0.154801
-0.164798
-0.147212
-0.147727
-0.157529
-0.160242
-0.16115
-0.173474
-0.171858
-0.137964
-0.140328
-0.141576
-0.201429
-0.174564
-0.214498
-0.235318
-0.184223
-0.17652
-0.181647
-0.180297
-0.19238
-0.189833
-0.171513
-0.156279
-0.207985
-0.238228
-0.161283
-0.160301
-0.165223
-0.183848
-0.191886
-0.203502
-0.168195
-0.172834
-0.185892
-0.165712
-0.213725
-0.238722
-0.1663
-0.167647
-0.175097
-0.1587
-0.174947
-0.184562
-0.145313
-0.153772
-0.162065
-0.167472
-0.204221
-0.228961
-0.151333
-0.167389
-0.178887
-0.129827
-0.126379
-0.134326
-0.155422
-0.158617
-0.165145
-0.162134
-0.168154
-0.177196
-0.149895
-0.189046
-0.207412
-0.178078
-0.220456
-0.245023
-0.160278
-0.190817
-0.205835
-0.196419
-0.205835
-0.221233
-0.12575
-0.121653
-0.127316
-0.162692
-0.167577
-0.18058
-0.152534
-0.16098
-0.169564
-0.150363
-0.152954
-0.161646
-0.164792
-0.166534
-0.178639
-0.123732
-0.121873
-0.12832
-0.163851
-0.17819
-0.18589
-0.162808
-0.241316
-0.278569
-0.15013
-0.165199
-0.172146
-0.127139
-0.125696
-0.133182
-0.12731
-0.125459
-0.132037
-0.152695
-0.158185
-0.171974
-0.128325
-0.130979
-0.14297
-0.0912166
-0.0851624
-0.0913195
-0.157736
-0.168468
-0.176823
-0.13973
-0.141013
-0.141379
-0.14684
-0.158962
-0.167101
-0.166445
-0.188258
-0.200867
-0.174471
-0.275901
-0.338478
-0.114589
-0.123857
-0.126226
-0.161231
-0.234007
-0.263889
-0.144485
-0.164494
-0.171974
-0.119165
-0.130359
-0.132438
-0.157483
-0.267365
-0.332255
-0.123988
-0.130534
-0.140264
-0.122687
-0.123466
-0.131361
-0.115596
-0.122379
-0.130775
-0.08123
-0.0767096
-0.080025
-0.150494
-0.144088
-0.158316
-0.168824
-0.147727
-0.160575
-0.174654
-0.1425
-0.152664
-0.165374
-0.134522
-0.143907
-0.156421
-0.146697
-0.158113
-0.17316
0.030965
-0.060893
0.0721471
0.0210578
0.0326394
-0.0120064
0.0721782
0.0205661
0.0328979
-0.0117035
0.0612289
0.00590734
-0.000562792
0.0557478
-0.00694326
0.00641122
-0.0216561
-0.0457647
-0.0457138
-0.0140925
-0.0331477
-0.0275203
0.00805745
0.0788537
0.0603164
-0.0752515
-0.0774293
-0.0765902
-0.10195
-0.0550227
-0.0101452
-0.069748
-0.0728513
-0.053843
-0.0522187
-0.0162806
-0.0561758
-0.0222377
-0.0686795
-0.0297482
-0.0337809
-0.0303993
-0.0184829
-0.0453462
0.0039882
-0.0791455
-0.0829498
-0.0904595
-0.100993
-0.102403
-0.0987397
-0.109507
-0.110988
-0.124016
-0.107063
0.0209736
0.0473722
0.0567161
0.0684612
0.0736269
0.029956
0.0234789
0.0261437
0.0259136
0.0270019
0.054672
0.0772125
0.0941413
0.100376
0.0961752
0.080711
0.0882229
0.094596
0.0981304
0.0988706
0.111549
0.110303
0.109976
0.110706
0.111542
0.145446
0.132488
0.123268
0.119224
0.118606
0.178182
0.150605
0.126727
0.114683
0.110542
0.201429
0.158499
0.119949
0.0876448
0.0747837
0.205387
0.151019
0.0922636
0.0223837
0.0595196
0.18533
0.137209
0.0708099
-0.0452594
-0.0616983
0.021938
0.0224375
0.0248756
0.0127445
0.0135567
0.0210537
0.0235371
0.0301485
0.0268629
0.0285772
0.0380724
0.0381005
0.039432
0.0414754
0.0548792
0.0564623
0.0563443
0.0644242
0.0649954
0.0670136
0.0675383
0.0812992
0.083107
0.0833185
0.0943483
0.0949648
0.095847
0.096044
0.112023
0.111221
0.111133
0.127621
0.127886
0.124635
0.124172
0.145227
0.138788
0.137783
0.161385
0.160761
0.150274
0.1486
0.177166
0.16325
0.16102
0.188297
0.18673
0.164628
0.161494
0.199487
0.178007
0.174399
0.204071
0.201742
0.174899
0.170442
0.202616
0.174385
0.169654
0.197173
0.194491
0.166948
0.162207
0.183052
0.159058
0.155036
0.0741231
0.055622
0.0500877
0.0708692
0.0705816
0.0701546
0.0694647
0.0869478
0.059426
0.0500956
0.0768916
0.0755318
0.0730139
0.0720146
0.0897958
0.0697954
0.0584455
0.0791852
0.0775417
0.0757235
0.0746476
0.0839943
0.0840099
0.0718444
0.0795075
0.07808
0.0780865
0.0770371
0.0878104
0.0850497
0.0839349
0.0965773
0.0964898
0.096102
0.0956434
0.0931993
0.08809
0.0862973
0.0989851
0.0983893
0.0973439
0.0967777
0.0961724
0.0923873
0.0902421
0.100706
0.100164
0.0994013
0.0989603
0.096625
0.096643
0.0943584
0.101729
0.101291
0.101265
0.10087
0.110064
0.108578
0.108102
0.121009
0.120478
0.117922
0.117226
0.109497
0.108051
0.107539
0.116582
0.115965
0.114598
0.114037
0.11031
0.10956
0.109191
0.115105
0.114776
0.114439
0.114236
0.111251
0.111257
0.110974
0.115323
0.115249
0.115183
0.115142
0.131583
0.126897
0.125895
0.140699
0.139267
0.131985
0.130486
0.122545
0.120015
0.119442
0.125922
0.124845
0.120873
0.119834
0.11883
0.118252
0.117919
0.118291
0.117516
0.11656
0.116013
0.118404
0.118416
0.118232
0.116231
0.115991
0.115943
0.115555
0.148307
0.136639
0.13427
0.151242
0.149445
0.137986
0.13497
0.124889
0.119517
0.118213
0.123269
0.120618
0.11134
0.108757
0.11356
0.111841
0.110815
0.103556
0.102057
0.0978279
0.0962362
0.11006
0.110002
0.109397
0.0955058
0.0949599
0.0947651
0.0932613
0.154754
0.134954
0.131482
0.15339
0.149537
0.127848
0.123332
0.116519
0.103204
0.0994763
0.104846
0.100509
0.0823505
0.0772631
0.085093
0.0809251
0.078222
0.0614432
0.059575
0.0418868
0.0380235
0.0745452
0.0744193
0.0737262
0.0367811
0.0181774
0.0182468
0.00549871
0.146394
0.120686
0.115254
0.143944
0.139081
0.111055
0.105552
0.0855076
0.0625066
0.0513507
0.0827591
0.0753082
0.0308834
0.0218196
0.0131959
-0.00774499
-0.0503111
0.0505922
0.0100936
-0.075606
-0.139054
-0.0051227
-0.00486515
-0.0214908
-0.0639669
0.132673
0.106211
0.103982
0.0589713
0.0154591
0.0667504
-0.0235145
-0.0956238
-0.0989584
-0.025715
-0.0904488
-0.0808835
-0.118728
-0.0840197
-0.070997
-0.0346014
-0.114431
-0.0629496
0.00260094
-0.0255537
-0.0433459
-0.021108
-0.033234
-0.0698047
-0.0628624
0.0029608
-0.0256012
-0.0437629
-0.0210123
-0.0332161
-0.0709217
-0.0554828
-0.0169936
-0.0170962
-0.0731311
-0.0121875
-0.062873
-0.0625503
-0.0900002
-0.048897
-0.154013
-0.148705
-0.0561475
-0.0561241
-0.0737037
-0.0575875
-0.0394252
-0.0875912
-0.0733327
-0.0569412
-0.0397837
-0.0900693
-0.0747654
-0.101266
-0.0997725
-0.150139
-0.0195856
-0.091561
-0.0397823
-0.0932339
-0.0278278
-0.171186
-0.10701
-0.084193
-0.184673
-0.0663486
-0.0260375
-0.170369
-0.0851022
-0.0245399
-0.187705
-0.189193
0.167333
0.165535
0.148557
0.144792
0.131178
0.12656
0.107217
-0.0503362
-0.0175066
-0.0344283
-0.0638213
-0.106305
-0.0440551
-0.0380629
-0.0452658
-0.080724
-0.0735909
-0.127035
-0.0852983
-0.060124
-0.00299874
-0.00255464
-0.00683843
-0.057854
-0.0364629
-0.0366816
0.024221
-0.00919482
-0.0867508
0.00213326
-0.0320436
-0.0530644
-0.0789703
-0.162148
-0.172943
-0.215796
-0.0313199
-0.0620305
-0.0252206
-0.106356
-0.00486856
-0.0884201
-0.0613631
-0.0714216
-0.139979
-0.0935778
-0.133584
-0.130354
-0.0910622
-0.0799898
-0.107338
-0.120368
-0.116291
-0.119685
-0.116664
-0.078405
-0.141337
-0.137026
-0.110639
-0.0852219
-0.138039
-0.113794
-0.062858
-0.056629
-0.134033
-0.0998156
-0.1196
-0.134354
-0.0811686
-0.0193526
-0.064476
-0.0650641
-0.0534165
-0.0534019
-0.0650489
-0.0511619
-0.0636861
-0.0704565
-0.0705921
-0.0679463
-0.057577
-0.0575316
-0.0651387
-0.0606339
-0.0497771
-0.0684883
-0.0425329
-0.0660393
-0.070725
-0.0651131
-0.0606817
-0.0492908
-0.0690532
-0.0424399
-0.0658981
-0.0708058
-0.0543692
-0.0864463
-0.0859926
-0.153205
-0.0572773
-0.0810314
-0.0810718
-0.0958993
-0.0624434
-0.0671126
-0.149677
-0.0889811
-0.132187
-0.0973256
-0.0661188
-0.0702151
-0.151827
-0.0910877
-0.132291
-0.14378
-0.143821
-0.067626
-0.0843495
-0.0712918
-0.106687
-0.111482
-0.0761068
-0.0513219
-0.103501
-0.0719439
-0.0967811
-0.114719
-0.0812053
-0.114602
-0.156471
-0.0897613
-0.0969781
-0.0627418
-0.0753688
-0.0765005
-0.110039
-0.0667648
-0.0843023
-0.0731997
-0.0690291
-0.136549
-0.0672857
-0.0846365
-0.0698837
-0.103338
-0.108675
-0.0762988
-0.0515885
-0.102621
-0.0714325
-0.0986319
-0.116403
-0.0906726
-0.112427
-0.155676
-0.0918345
-0.0977284
-0.063191
-0.0750313
-0.0746608
-0.112999
-0.06615
-0.0852176
-0.0702708
-0.0704857
-0.0890218
-0.0896773
-0.125495
-0.100301
-0.0998286
-0.185308
-0.234506
-0.15412
-0.109895
-0.0856632
-0.0611987
-0.163514
-0.0987314
-0.180885
-0.137044
-0.162645
-0.121849
-0.09656
-0.23936
-0.109925
-0.157817
-0.0844879
-0.0886247
-0.161037
-0.0866529
-0.154664
-0.16191
-0.168058
-0.0525954
-0.100983
-0.120074
-0.144032
-0.167138
-0.0748853
-0.0609895
-0.160166
-0.0598217
-0.137367
-0.147856
-0.145272
-0.149214
-0.163434
-0.0914347
-0.0720514
-0.150703
-0.150694
-0.0887303
-0.144539
-0.199623
-0.176802
-0.166523
-0.163346
-0.141676
-0.0977305
-0.153667
-0.220635
-0.111261
-0.0844747
-0.0711
-0.137018
-0.0491027
-0.0719665
-0.0375826
-0.0610422
-0.0406705
-0.071139
-0.0758958
-0.0590893
-0.150207
-0.140578
-0.0642247
-0.106789
-0.119737
-0.0781447
-0.196113
-0.129366
-0.143307
-0.12045
-0.0996731
-0.158564
-0.0962027
-0.0820009
-0.0959014
-0.15577
-0.0399664
-0.128536
-0.118558
-0.153356
-0.0835709
-0.121588
-0.070277
0.100131
0.0707168
0.0592135
0.0205145
-0.0966663
-0.136907
-0.0885118
-0.132396
-0.0575976
-0.0658042
-0.102553
-0.163005
-0.116886
-0.0959191
-0.124394
-0.133983
-0.0980362
-0.0823587
-0.122679
-0.038186
-0.134126
-0.144199
-0.0409239
-0.0462487
-0.0430842
-0.086252
-0.108521
-0.106582
-0.122799
-0.00806122
-0.217648
-0.166326
-0.186619
-0.105759
-0.0856387
-0.21574
-0.165318
-0.179317
0.0609941
0.0236775
0.0102149
0.010149
0.0139621
0.043016
0.0430812
0.00737881
0.0446448
-0.0322864
-0.0374546
0.0668702
-0.0310453
-0.00664302
-0.0758827
0.0374262
0.0229661
-0.0573042
0.0617181
-0.0474618
-0.0957307
-0.0362691
-0.0478112
-0.0516404
-0.0739979
-0.0133819
-0.0746303
-0.0649858
-0.0281526
-0.0680733
-0.0706829
-0.0621842
-0.0638567
-0.0611796
-0.0334499
-0.0361662
-0.0479037
-0.0513992
-0.0739802
-0.0132046
-0.0747392
-0.0650597
-0.0280612
-0.0684686
-0.0707159
-0.0618415
-0.0639513
-0.0615966
-0.0332509
-0.0818147
-0.128736
-0.0190689
-0.0800499
-0.0899339
-0.0575303
-0.0814283
-0.0838843
-0.129356
-0.0190024
-0.0796961
-0.0905277
-0.0582075
-0.0820997
-0.0559108
-0.0247534
-0.102496
-0.0464996
-0.138261
-0.0163158
-0.187612
-0.16499
-0.0581188
-0.0653716
-0.0262531
-0.200799
-0.184997
-0.038835
-0.102589
-0.089974
-0.015332
-0.20652
-0.039615
-0.161834
-0.0965622
-0.0817815
-0.171399
-0.119486
-0.146261
0.0186977
-0.06784
-0.108952
-0.0951275
-0.0893903
-0.0111825
-0.144078
-0.073255
-0.195422
-0.0235801
-0.0552261
-0.152468
-0.084349
-0.0868217
-0.12688
-0.0604737
-0.0322759
-0.0622446
-0.159369
-0.131313
-0.07391
-0.219437
-0.140191
0.00683401
-0.0174514
-0.024028
-0.0639866
-0.096829
-0.084552
-0.0820808
0.0308121
0.0675862
0.0279732
0.00666122
0.0879556
0.00762017
0.0163838
0.0305658
0.0676645
0.0284466
0.00656354
0.0878051
0.00806988
0.016495
-0.00128472
0.0951303
-0.0599291
-0.019573
0.0302436
0.0369392
-0.0359847
-0.0993694
0.0809383
0.00905435
-0.0220102
0.0202517
-0.0533592
-0.0467165
0.0476445
-0.00549229
-0.019536
-0.0783329
0.0521455
-0.0704009
0.0638171
0.0601303
0.0268928
-0.0470992
-0.0779074
-0.152283
-0.156265
-0.167415
-0.154795
-0.171939
-0.182611
-0.152189
-0.155576
-0.166548
-0.170712
-0.181415
-0.125738
-0.142694
-0.155304
-0.129675
-0.146107
-0.158704
-0.167281
-0.170585
-0.17779
-0.171692
-0.192988
-0.208265
-0.172951
-0.171727
-0.180916
-0.174142
-0.197489
-0.21232
-0.160484
-0.158754
-0.165216
-0.131278
-0.134824
-0.142459
-0.170192
-0.197025
-0.213578
-0.11983
-0.120206
-0.125451
-0.172448
-0.199707
-0.21611
-0.0951035
-0.103205
-0.11021
-0.142227
-0.14512
-0.153006
-0.153177
-0.149121
-0.154004
-0.135021
-0.137789
-0.14423
-0.15468
-0.151893
-0.157521
-0.122191
-0.136259
-0.149066
-0.129296
-0.150317
-0.165273
-0.110693
-0.1195
-0.12705
-0.12064
-0.133938
-0.146393
-0.151255
-0.177685
-0.196634
-0.117069
-0.12737
-0.136155
-0.103394
-0.112623
-0.119715
-0.103744
-0.107981
-0.1148
-0.105798
-0.115332
-0.123614
-0.101198
-0.105405
-0.111332
-0.105405
-0.114008
-0.121672
-0.179858
-0.184288
-0.192329
-0.174318
-0.207622
-0.229895
-0.192238
-0.187859
-0.199743
-0.186395
-0.190567
-0.198567
-0.163785
-0.202976
-0.223686
-0.151957
-0.154123
-0.165072
-0.148756
-0.146858
-0.153185
-0.190992
-0.199847
-0.213501
-0.179121
-0.183459
-0.191262
-0.21241
-0.258214
-0.287393
-0.148361
-0.152647
-0.165453
-0.171915
-0.17146
-0.184969
-0.195576
-0.126428
-0.132826
-0.134878
-0.14854
-0.208349
-0.230817
-0.164934
-0.194809
-0.19302
-0.196808
-0.146369
-0.178143
-0.201915
-0.17427
-0.17935
-0.189964
-0.198054
-0.19401
-0.198083
-0.150778
-0.177913
-0.199761
-0.170205
-0.173269
-0.182977
-0.176765
-0.175252
-0.186976
-0.178843
-0.178361
-0.190167
-0.164391
-0.184956
-0.197063
-0.169172
-0.173428
-0.188416
-0.165535
-0.170505
-0.185023
-0.145917
-0.149771
-0.160038
-0.152591
-0.170702
-0.181594
-0.147471
-0.150824
-0.161548
-0.169702
-0.180371
-0.147507
-0.151416
-0.159405
-0.138457
-0.150966
-0.160394
-0.148696
-0.152856
-0.160728
-0.12495
-0.141348
-0.153612
-0.137135
-0.149563
-0.159054
-0.139148
-0.141491
-0.148161
-0.141172
-0.153937
-0.163191
-0.14614
-0.148965
-0.156238
-0.131599
-0.148566
-0.161476
-0.136684
-0.149025
-0.158576
-0.151103
-0.178737
-0.194878
-0.138954
-0.141589
-0.150833
-0.149534
-0.174788
-0.190268
-0.158897
-0.162507
-0.169403
-0.150962
-0.155375
-0.165938
-0.127546
-0.150564
-0.163756
-0.161584
-0.16363
-0.175816
-0.1454
-0.166212
-0.178391
-0.176653
-0.186932
-0.198236
-0.137178
-0.163945
-0.17928
-0.147402
-0.147841
-0.155862
-0.144443
-0.166062
-0.179259
-0.156718
-0.164274
-0.173361
-0.134659
-0.185612
-0.203426
-0.178937
-0.183609
-0.190638
-0.163883
-0.1689
-0.173161
-0.16063
-0.175015
-0.183469
-0.163504
-0.179319
-0.188061
-0.180431
-0.181894
-0.189108
-0.175415
-0.176216
-0.182837
-0.147729
-0.15119
-0.160618
-0.16563
-0.186882
-0.199496
-0.148124
-0.151186
-0.161389
-0.164047
-0.185076
-0.197863
-0.0950809
-0.10317
-0.110123
-0.094894
-0.102933
-0.109904
-0.0946353
-0.102269
-0.10883
-0.102963
-0.111354
-0.118988
-0.108915
-0.118559
-0.127227
-0.103957
-0.112511
-0.120227
-0.10741
-0.11678
-0.125257
-0.151337
-0.161356
-0.171973
-0.135946
-0.13545
-0.143947
-0.136328
-0.135818
-0.144286
-0.136966
-0.154362
-0.167311
-0.136618
-0.15386
-0.16677
-0.162654
-0.163369
-0.170527
-0.157368
-0.174337
-0.189114
-0.148716
-0.146861
-0.154877
-0.142088
-0.142357
-0.148775
-0.159458
-0.160601
-0.168195
-0.155659
-0.17193
-0.186056
-0.14699
-0.146513
-0.154321
-0.143731
-0.145125
-0.151961
-0.140897
-0.158027
-0.173653
-0.146795
-0.148224
-0.156091
-0.141838
-0.143117
-0.150291
-0.114918
-0.113994
-0.11906
-0.154193
-0.169607
-0.181305
-0.122491
-0.127658
-0.134291
-0.107872
-0.109702
-0.114833
-0.121372
-0.132572
-0.141136
-0.134471
-0.149515
-0.160237
-0.117286
-0.118616
-0.125712
-0.121537
-0.124254
-0.131724
-0.146899
-0.148447
-0.154488
-0.155664
-0.156563
-0.162207
-0.135304
-0.149668
-0.160456
-0.136816
-0.153708
-0.165685
-0.15645
-0.173569
-0.187461
-0.126264
-0.122556
-0.128519
-0.124946
-0.139101
-0.150492
-0.111646
-0.120758
-0.128102
-0.119401
-0.131522
-0.141309
-0.130703
-0.131107
-0.138274
-0.137743
-0.149906
-0.159476
-0.117375
-0.122639
-0.129347
-0.11331
-0.116249
-0.121997
-0.120349
-0.130685
-0.139275
-0.129586
-0.142995
-0.152872
-0.108407
-0.108046
-0.112912
-0.12621
-0.129678
-0.137949
-0.131802
-0.130418
-0.133023
-0.146341
-0.147318
-0.152109
-0.149637
-0.167175
-0.180025
-0.141942
-0.159188
-0.171545
-0.151123
-0.164626
-0.176037
-0.140981
-0.139422
-0.147804
-0.124665
-0.139624
-0.152216
-0.11153
-0.120595
-0.128137
-0.112574
-0.12333
-0.132071
-0.128183
-0.138305
-0.147626
-0.101657
-0.110238
-0.11815
-0.10321
-0.112065
-0.120126
-0.103549
-0.108282
-0.113965
-0.10238
-0.1071
-0.112794
-0.0987256
-0.1019
-0.107835
-0.107431
-0.116677
-0.124707
-0.100126
-0.103417
-0.109723
-0.106195
-0.115315
-0.123311
-0.153421
-0.15446
-0.165585
-0.19474
-0.194844
-0.209719
-0.180637
-0.18837
-0.200774
-0.158421
-0.159072
-0.169939
-0.179429
-0.189754
-0.197062
-0.155938
-0.163745
-0.168872
-0.154535
-0.197414
-0.220189
-0.155852
-0.193292
-0.210741
-0.185451
-0.183859
-0.197086
-0.158617
-0.220406
-0.256135
-0.179316
-0.18174
-0.189221
-0.145537
-0.194117
-0.222793