/*--------------------------------*- C++ -*----------------------------------*\
| =========                 |                                                 |
| \\      /  F ield         | OpenFOAM: The Open Source CFD Toolbox           |
|  \\    /   O peration     | Version:  2.3.1                                 |
|   \\  /    A nd           | Web:      www.OpenFOAM.org                      |
|    \\/     M anipulation  |                                                 |
\*---------------------------------------------------------------------------*/
FoamFile
{
    version     2.0;
    format      ascii;
    class       surfaceScalarField;
    location    "3000/fluid";
    object      phi;
}
// * * * * * * * * * * * * * * * * * * * * * * * * * * * * * * * * * * * * * //

dimensions      [1 0 -1 0 0 0 0];

internalField   nonuniform List<scalar> 
75547
(
-0.000878042
0.00114421
0.000803093
-0.0225328
0.00495291
-0.113074
-0.000925134
-0.000989076
-0.00125633
-0.00136809
-0.000610734
-0.00058049
-0.000673211
-0.000875489
0.00144578
-0.000872845
0.000805097
0.00111926
-0.0225114
0.00375516
0.00372601
-0.109081
-0.000921054
-0.000750198
-0.00112673
-0.0013309
-0.000923584
-0.000742395
-0.00113356
-0.00133728
0.00434857
-0.106681
0.00216695
0.00492964
0.00141509
-0.113168
-0.000582684
-0.000571652
-0.000679607
-0.000875585
-0.000876161
-0.000940997
-0.00122439
-0.00130513
0.00438742
0.00214022
-0.106836
0.0025188
-0.101302
0.00254701
-0.000335394
0.0011922
0.000182974
-0.0176442
0.00581066
-0.10859
-0.00121826
-0.00137936
-0.00148875
-0.0015601
4.99201e-05
0.00489048
-0.103773
1.85823e-05
-0.0973045
0.00279191
9.30621e-06
0.0220239
-0.00122244
0.00109276
0.00157545
-0.021682
0.00732125
-0.0278216
-0.00184747
-0.00176935
-0.00202402
-0.00210301
-0.000991569
-0.000943767
-0.00110324
-0.00131262
-0.0278234
-0.0273649
-0.0272154
0.00192505
0.0220087
-0.00122246
0.00157701
0.00109909
-0.0216746
0.00521236
0.00525847
-0.0262871
-0.00155066
-0.00138464
-0.00176004
-0.00200398
-0.00155512
-0.00137957
-0.0017711
-0.0020136
-0.0267179
-0.0267587
-0.0263696
0.00627773
-0.0263238
-0.0260369
-0.0256394
-0.0251944
0.00276968
0.00731814
0.00221918
-0.0279299
-0.0010095
-0.000950249
-0.00113595
-0.00132379
-0.00183191
-0.00172825
-0.00202909
-0.00210377
-0.0274329
-0.0279092
-0.0273208
0.00624966
0.00280427
-0.0263529
-0.0256605
-0.0260903
-0.0252102
0.00361479
-0.0245787
-0.0240521
-0.0240566
-0.0233751
0.00367291
0.0171504
-0.000601312
0.00183942
0.000254303
-0.0167529
0.00911968
-0.0272203
-0.00183992
-0.00190338
-0.00220261
-0.00222989
-0.026798
-0.0269276
-0.0263865
1.73969e-05
0.00730329
-0.0254785
-0.0245253
-0.0250917
-0.0240625
6.00437e-06
-0.0231718
-0.0224904
-0.0227265
-0.0220138
0.00400634
9.75599e-06
0.0214246
-0.00123212
0.00105215
0.00167863
-0.0211236
-0.00183123
-0.000958108
0.000732888
0.00188247
-0.0276476
0.0214246
-0.00123292
0.00168062
0.00106534
-0.0211344
-0.0015913
-0.00159928
0.00147978
0.00148221
-0.0260585
-0.00181652
-0.00123389
0.00098246
0.00171436
-0.0259702
-0.00099229
-0.00182449
0.00187262
0.000793319
-0.027779
-0.00123654
-0.00180886
0.00171434
0.000996892
-0.0260187
-0.00143597
-0.00143385
0.00116881
0.00116827
-0.024046
0.0164547
-0.000603532
0.00199894
0.000253714
-0.0161603
-0.00202784
-0.000537329
0.00203398
0.000295033
-0.0269842
-0.000638924
-0.00190838
0.00189176
0.000345544
-0.0251685
-0.000762065
-0.0016119
0.00133024
0.000428881
-0.0225569
0.0208898
-0.00148814
0.00132001
0.00205973
-0.0207521
-0.00218853
-0.0012607
0.0274745
0.00097037
0.00222574
-0.0272214
0.0208943
-0.00148392
0.00203426
0.00132234
-0.0207314
-0.00197021
-0.00197072
0.0257311
0.00181714
0.001819
-0.0254263
0.0255458
-0.00215826
-0.00154758
0.0012035
0.0020153
-0.0250587
-0.00126442
-0.00220852
0.0275775
0.00223106
0.000971994
-0.0273076
0.0256259
-0.00154962
-0.00216791
0.00201616
0.00121779
-0.0251423
0.0234106
-0.0017074
-0.0017099
0.0013248
0.00132225
-0.0226404
0.0158842
-0.000717536
0.00257292
0.000286429
-0.0158112
-0.00253963
0.0266894
-0.000649817
0.00247661
0.000337043
-0.0263136
0.0247191
-0.000810148
-0.00229395
0.00209529
0.000403374
-0.0241137
0.0218401
-0.000832103
-0.00182214
0.00146787
0.00045641
-0.0211101
0.0205801
-0.0015998
0.00141614
0.00215972
-0.0203955
-0.00238855
-0.00135604
0.0269443
0.00104351
0.00229957
-0.0265428
0.020547
-0.00158714
0.00222336
0.00138828
-0.0204103
-0.00209282
-0.00210586
0.025119
0.00193692
0.00194979
-0.024807
0.0246002
-0.00228535
-0.00167482
0.00134409
0.00219157
-0.0241757
-0.00132506
-0.00247102
0.0269589
0.00238241
0.00101948
-0.0265647
0.0246788
-0.00167911
-0.00230152
0.00219568
0.0013623
-0.0242562
0.0219054
-0.00194034
-0.0019423
0.00156559
0.00157267
-0.021161
0.015752
-0.000824758
0.00279787
0.000327141
-0.0156775
-0.00279269
0.0259604
-0.000671627
0.00273369
0.000360882
-0.0255907
0.023364
-0.000963898
-0.00260816
0.00241941
0.000506089
-0.0227174
0.020213
-0.00109634
-0.00214181
0.00173777
0.000550024
-0.0192627
0.0202787
-0.00151217
0.00130625
0.00214334
-0.0201399
-0.00247084
-0.00130425
0.026197
0.00103346
0.00240295
-0.0258584
0.0202962
-0.00151606
0.00214241
0.00131683
-0.020161
-0.00202173
-0.00205863
0.0244234
0.00189602
0.00187175
-0.0241108
0.0237679
-0.00226744
-0.00166765
0.00135736
0.00217842
-0.0233686
-0.00132601
-0.00252254
0.026254
0.00241274
0.00104255
-0.0258607
0.0238103
-0.00163701
-0.00233817
0.00221399
0.00132402
-0.0233732
0.0204348
-0.00202805
-0.00202035
0.00169253
0.00171064
-0.0197895
0.0156434
-0.000841687
0.00285281
0.000323434
-0.0156624
-0.00281776
0.025185
-0.000714247
0.00278093
0.000328435
-0.0247623
0.0220961
-0.000948097
-0.00272773
0.00260537
0.00049217
-0.0215178
0.0182931
-0.00125702
-0.00231219
0.00195343
0.000611767
-0.0172891
0.0200501
-0.00119691
0.00106611
0.0017767
-0.0200091
-0.00204718
-0.00107558
0.025596
0.000883785
0.00208645
-0.0254435
0.0199972
-0.00117662
0.00173837
0.00107213
-0.0199464
-0.00168142
-0.00167916
0.0239191
0.00163807
0.00160788
-0.0238045
0.0229427
-0.00215074
-0.00152291
0.00128231
0.00213967
-0.0226911
-0.00109318
-0.00206636
0.0255593
0.00210687
0.000888777
-0.0253954
0.0229954
-0.00152768
-0.00214324
0.00214012
0.00128145
-0.0227461
0.0192402
-0.00204573
-0.00204399
0.00181756
0.0017906
-0.0187586
0.0156303
-0.000627877
0.00219097
0.000260424
-0.0155784
-0.00225111
0.0244788
-0.000622385
0.00238965
0.00035411
-0.0243491
0.0210586
-0.000878317
-0.00253374
0.00259968
0.000460509
-0.0207067
0.0162584
-0.00133105
-0.00253029
0.00221073
0.00068746
-0.0152952
0.0199403
-0.000639628
0.000584701
0.000936636
-0.0199192
-0.00130603
-0.00067438
0.0253736
0.000576048
0.00138539
-0.0253547
0.01997
-0.000634105
0.000940584
0.000562396
-0.0199346
-0.000984791
-0.000991262
0.0237989
0.00106015
0.00105795
-0.023941
0.0226437
-0.00156876
-0.00103691
0.00101063
0.00180434
-0.022853
-0.000660896
-0.00123528
0.02541
0.00132798
0.000522803
-0.0253646
0.0227029
-0.00104706
-0.00153438
0.00178767
0.00103392
-0.0229431
0.0184257
-0.00186908
-0.00191917
0.00182849
0.00180528
-0.0182712
0.0155306
-0.000352358
0.00125706
0.000146143
-0.0155312
-0.00141316
0.0243362
-0.000424462
0.00167561
0.000238545
-0.0244128
0.0205151
-0.000812726
-0.00208966
0.0024658
0.000432252
-0.0205107
0.0143832
-0.00143078
-0.00265122
0.00248992
0.000745628
-0.0135368
0.0200429
0.000427043
-0.000312758
-0.000452619
-0.0203199
0.000448404
0.000197537
0.0256316
-0.000102251
-4.0613e-05
-0.0261346
0.0200508
0.0004317
-0.000445909
-0.000329956
-0.0203215
0.000166479
0.000160175
0.0243447
7.70695e-05
8.13582e-05
-0.0248298
0.023302
-0.000384986
-0.000330007
0.000421474
0.000868405
-0.0238769
0.000218671
0.000439841
0.025638
-1.6435e-05
-0.000125389
-0.0261547
0.0234015
-0.000323277
-0.000402825
0.000839667
0.000404419
-0.0239195
0.0183717
-0.00135588
-0.00131541
0.00155939
0.00156042
-0.0188202
0.0156156
0.000200831
-0.000548029
-7.97687e-05
-0.015793
0.000184251
0.0247561
2.26572e-05
0.000303817
1.51082e-05
-0.0252819
0.0208104
-0.000465729
-0.000936926
0.00167229
0.000350654
-0.0214307
0.0128599
-0.00139535
-0.00230474
0.000812906
0.000660807
0.000628686
0.000680355
0.000638183
-0.00283357
-0.0034337
-0.00304752
-0.00326592
0.0207305
0.00153819
-0.00127441
-0.00202453
-0.0211452
0.00225523
0.00116396
0.0268808
-0.000883722
-0.00187961
-0.0275366
0.020736
0.00153729
-0.00202539
-0.00127133
-0.0211508
0.0016849
0.00170761
0.0254696
-0.00135488
-0.00135178
-0.0261555
0.0246186
0.00148918
0.000992417
-0.000678873
-0.00100212
-0.0254192
0.00117192
0.00226152
0.0268935
-0.00188203
-0.000860266
-0.0275846
0.024655
0.00101086
0.00146928
-0.000992346
-0.000696234
-0.0254466
0.0196985
0.000416534
0.000385695
2.05183e-05
6.93235e-06
-0.0210977
6.96731e-05
5.94398e-05
0.000132465
7.94997e-05
7.57507e-05
0.000152701
0.0160691
0.000794605
-0.00251905
-0.000335621
-0.0163593
0.00222575
0.0258847
0.000523139
-0.00185528
-0.000341419
-0.0264369
0.0222134
0.000342215
0.0012982
-0.000400966
-0.000185071
-0.0232677
-0.000159722
6.48057e-05
-0.00364407
-6.765e-05
0.000297942
0.00350869
-0.0136488
0.000566786
0.00115008
0.000653758
0.00153005
-0.0131613
0.00155659
-0.0109055
0.000349239
0.000341766
-0.0240386
-0.0320032
0.000196473
0.00174393
-0.0105568
0.000463665
0.000259656
-0.0234164
-0.0316707
0.000302989
0.00110067
-0.0108653
0.00109726
-0.0108636
-0.0257191
0.00086972
0.000865587
0.0012594
0.00102203
-0.0104966
0.00125994
0.0010211
-0.0104944
0.00107406
0.00107395
-0.0253477
0.000840313
-0.0330422
0.000803223
-0.0262095
-0.0276805
0.000925229
0.00114453
0.0011986
-0.0324587
0.000981381
-0.026099
-0.0277069
-0.0135984
0.00114486
0.000525364
0.00152713
0.00066393
-0.0131175
0.000795287
-0.0262108
0.00083584
-0.0330125
-0.0276647
0.0011472
0.000927668
0.000981922
-0.0261051
0.0012034
-0.0324407
-0.0276922
0.000441711
-0.0239402
0.0015106
-0.0108835
-0.0320138
0.00019208
0.000294918
-0.0233113
0.00170544
0.000456263
-0.0104865
0.000287794
-0.0316063
0.000156295
-0.0271898
0.00131249
-0.0211257
7.40646e-05
-0.0275091
3.86868e-05
0.00139941
0.000193257
0.000160425
-0.0271517
0.00145941
-0.020596
1.90226e-05
-0.0274706
2.1243e-05
-0.0128389
0.000838302
0.00197371
0.000851361
0.00204546
-0.0126334
0.00215258
-0.010266
0.000574283
0.000361976
-0.0230049
-0.0313237
0.00039823
0.00222277
-0.0100499
0.000595004
0.000352608
-0.0227695
-0.0312418
0.000390519
0.0015522
-0.010261
0.00155318
-0.0102594
-0.0250437
0.00140091
0.00140044
0.00160063
0.00122757
-0.0100784
0.00160195
0.00122767
-0.010077
0.00147662
0.00147926
-0.024797
0.00161828
-0.0320021
0.00124877
-0.0259221
-0.0271683
0.00107587
0.00167869
0.00182872
-0.0318127
0.00134411
-0.0258709
-0.027312
-0.0128184
0.00197027
0.000866687
0.00203937
0.000890738
-0.0126396
0.00124855
-0.0259313
0.00162026
-0.0320011
-0.0271532
0.00168053
0.00108321
0.00134477
-0.0258874
0.00182845
-0.031843
-0.0273174
0.000438678
-0.0229314
0.00213785
-0.0102085
-0.0311878
0.000429695
0.000471682
-0.0227767
0.00220041
0.00062435
-0.010005
0.000491289
-0.0311107
0.00022722
-0.0269498
0.00186691
-0.0201291
6.39094e-06
-0.027292
1.21949e-05
0.00195157
0.000266822
0.00026788
-0.0269774
0.00198684
-0.0197581
1.44511e-06
-0.0272738
6.54977e-06
-0.0124329
0.000855673
0.00201268
0.000946274
0.00211721
-0.0121878
0.00227524
-0.00981985
0.000596433
0.000424361
-0.0224614
-0.0309637
0.00198198
0.000439449
0.00241564
-0.00950066
0.00057737
0.000486173
-0.0220653
0.00193606
-0.0305382
0.00202266
0.000453645
0.00164064
-0.00989587
0.00164235
-0.00989531
-0.0245114
0.00149816
0.00149926
0.00178708
0.00136338
-0.00978332
0.00178333
0.00136227
-0.00977606
0.00166356
0.0016636
-0.0242682
0.00177999
-0.031486
0.00137936
-0.0256648
-0.0271297
0.00118781
0.00178923
0.00117712
0.00187002
0.00190987
-0.031168
0.00106643
0.00149137
-0.0254005
0.00177789
-0.0268174
0.00122223
0.00186667
-0.0124558
0.00199979
0.00089663
0.00213113
0.000949994
-0.0122195
0.00137959
-0.0256864
0.00177862
-0.0315487
-0.0271497
0.00179294
0.00119756
0.00186599
0.00117774
0.00149025
-0.0254312
0.00178423
0.00190182
-0.0312407
0.00109905
-0.0268676
0.00186686
0.0012431
0.000490182
-0.022482
0.00225776
-0.00977109
-0.0308068
0.00046981
0.00197418
0.000464622
-0.0220772
0.00195458
0.00244128
0.000565352
-0.00947174
0.000421481
-0.0303673
0.00204498
0.000265937
-0.0268024
0.00206613
-0.0194062
-1.01888e-06
-0.0270395
0.00209351
4.30391e-06
0.00214103
0.000228883
0.000248956
-0.0266498
0.00216094
0.00221253
-0.0190898
-3.8046e-06
-0.0268138
0.00223387
1.94097e-06
-0.0120665
0.00107038
0.00231319
0.00111828
0.00236402
-0.0118748
0.00257416
-0.00925316
0.000654642
0.000565829
-0.0217743
-0.0301368
0.0022437
0.00049491
0.00281182
-0.00916799
0.000763409
0.00060948
-0.0214309
0.00224439
-0.0296634
0.00239366
0.000554201
0.00192881
-0.00974644
0.00191218
-0.00971728
-0.0241094
0.00184144
0.00184073
0.00198492
0.00156488
-0.00968951
0.0019924
0.00154804
-0.00965615
0.0019126
0.00191426
-0.0239589
0.00212483
-0.0309203
0.00168357
-0.0251531
-0.0265055
0.00141691
0.00207955
0.00141109
0.0021
0.00215277
-0.0306263
0.00132835
0.00175102
-0.024943
0.0020515
-0.0262396
0.00148021
0.00215777
-0.0120518
0.00229696
0.00105345
0.0024282
0.00107646
-0.0118753
0.001677
-0.025204
0.00210424
-0.0309901
-0.0265903
0.00207766
0.00142625
0.00210759
0.00137622
0.00174341
-0.0249743
0.00204877
0.0021706
-0.0306366
0.00128031
-0.0262938
0.00215264
0.00146496
0.000535223
-0.0217821
0.00274315
-0.00942081
-0.0300142
0.000542233
0.00238303
0.000541531
-0.0215194
0.00236039
0.00288468
0.000786884
-0.00941415
0.000571196
-0.0297108
0.00255156
0.000289181
-0.0263635
0.00258325
-0.0189288
-2.16248e-05
-0.02651
0.00257503
-6.43382e-06
0.00272832
0.000313028
0.000301908
-0.0260862
0.00272028
0.00274151
-0.0188065
-1.50906e-05
-0.0262232
0.00276183
-5.2242e-06
-0.011749
0.00113115
0.00249547
0.00111729
0.0025489
-0.0116643
0.00292689
-0.00914983
0.000814003
0.000614845
-0.0211761
-0.0292798
0.00254195
0.00061626
0.00296046
-0.00915131
0.000831591
0.000613525
-0.0209947
0.00245902
-0.0290217
0.00263997
0.000675933
0.00204307
-0.00964974
0.00208146
-0.00964827
-0.0237986
0.00198387
0.00198031
0.00209756
0.001592
-0.00966809
0.00210598
0.00158744
-0.00967417
0.00201667
0.00201184
-0.0236235
0.00218865
-0.0302594
0.00179559
-0.0246878
-0.0259609
0.00151897
0.00218651
0.00136978
0.00225789
0.00229569
-0.0299744
0.00133795
0.0017919
-0.024333
0.00212783
-0.0256005
0.00151772
0.00220944
-0.0117623
0.00253478
0.00111352
0.00258108
0.00111055
-0.0116886
0.00179792
-0.0246744
0.00225075
-0.0302893
-0.0259427
0.0021904
0.0015071
0.00228829
0.00133922
0.0017741
-0.0242919
0.0021435
0.00234641
-0.0300269
0.00131145
-0.0255308
0.00222772
0.00148087
0.000596467
-0.0213321
0.00296009
-0.00941624
-0.0294206
0.00062849
0.00263788
0.000626811
-0.0212332
0.00253777
0.00300781
0.000846607
-0.0094608
0.000683074
-0.0291786
0.00270956
0.000323012
-0.0257755
0.00279223
-0.01867
-6.27776e-06
-0.0259291
0.00282178
-6.33719e-07
0.00286335
0.000331177
0.00033257
-0.0254092
0.00284752
0.00284402
-0.0186172
3.47624e-05
-0.0256056
0.00285583
-2.72492e-06
-0.011632
0.00109767
0.00251319
0.00102774
0.00238472
-0.0116471
0.00292013
-0.00917896
0.000820577
0.000612711
-0.0208921
-0.028819
0.00264499
0.000685149
0.00277871
-0.0092573
0.000781662
0.000586143
-0.020862
0.00235884
-0.0286675
0.00254024
0.000673102
0.00201212
-0.00964679
0.00199877
-0.00964816
-0.0234263
0.00191165
0.00190205
0.0017956
0.00134916
-0.00954012
0.00178934
0.00136869
-0.00956325
0.00168906
0.00169972
-0.0232302
0.00222169
-0.0296809
0.00172489
-0.0240246
-0.025233
0.00147003
0.00210908
0.00120749
0.00198204
0.00219556
-0.0295374
0.00125317
0.00159837
-0.0238188
0.00186694
-0.0249171
0.00142326
0.00205479
-0.011705
0.00254666
0.00112638
0.00238115
0.00104547
-0.0117383
0.00170337
-0.0240094
0.00221552
-0.0297049
-0.0252213
0.00216408
0.00144535
0.00190581
0.00121723
0.00156886
-0.02385
0.00187718
0.00208584
-0.0294542
0.00126177
-0.0250081
0.00204557
0.00139592
0.000619753
-0.0211492
0.00297655
-0.00955411
-0.0289499
0.000698151
0.00266944
0.000603352
-0.0211523
0.00240589
0.00276158
0.000779332
-0.00959941
0.00065583
-0.0287531
0.00251232
0.000327741
-0.0250037
0.00282243
-0.0185724
-2.91947e-05
-0.025265
0.00281875
-9.1445e-06
0.00259334
0.000306957
0.000347648
-0.0246756
0.00257338
0.00265565
-0.0185965
6.61447e-06
-0.0249367
0.00265771
1.72473e-05
-0.0116107
0.000883995
0.00204817
0.000733082
0.00170109
-0.011698
0.00249609
-0.00938404
0.000706046
0.00053155
-0.0208466
-0.0285627
0.00229066
0.000632172
0.00202696
-0.00949228
0.000559496
0.000458339
-0.0209653
0.00176722
-0.0285092
0.00190672
0.000525034
0.00159039
-0.00949015
0.00156178
-0.00947334
-0.0230579
0.0015074
0.00147252
0.00124082
0.000927455
-0.00945573
0.0012612
0.000944755
-0.00945837
0.00115714
0.00116713
-0.0228802
0.00194893
-0.0294476
0.00143094
-0.0236471
-0.0247281
0.0012645
0.00192638
0.000817154
0.00135199
0.00153746
-0.029355
0.000888184
0.00111335
-0.023586
0.00133471
-0.0247565
0.00103379
0.00164539
-0.0117283
0.00207579
0.000891096
0.00162745
0.0006814
-0.0116956
0.00141254
-0.0237308
0.00193855
-0.029338
-0.0248544
0.00190521
0.00129219
0.00144003
0.000855491
0.00117679
-0.0236673
0.00136686
0.0016443
-0.0293718
0.000872474
-0.0248059
0.0016811
0.0010915
0.000526771
-0.0211327
0.00235091
-0.00951586
-0.0286084
0.000548123
0.00218481
0.0003864
-0.0210729
0.00159334
0.00191663
0.000499379
-0.00948508
0.000456613
-0.0285252
0.00176322
0.000310855
-0.0244984
0.00229394
-0.018606
8.85481e-06
-0.0246694
0.00233383
3.65504e-06
0.00173664
0.000199558
0.000241005
-0.0244329
0.00188668
0.00172361
-0.0185517
2.525e-07
-0.0246223
0.00192353
-6.01955e-06
-0.0118168
0.000520068
0.00123854
8.88405e-05
0.000256405
-0.0118767
0.00139168
-0.00947478
0.000354744
0.000316628
-0.0210974
-0.0285412
0.00138908
0.000351284
0.00040606
-0.00952337
7.15466e-05
7.36871e-05
-0.0212146
0.000331282
-0.0287099
0.000521771
0.000126674
0.000852295
-0.00944409
0.000856317
-0.00944432
-0.0228213
0.000830216
0.000819489
0.000156517
9.87674e-05
-0.00948728
0.00016054
9.46557e-05
-0.00948732
0.000231049
0.00022662
-0.0229619
0.00114773
-0.0293539
0.000826964
-0.0236309
-0.0248224
0.000781463
0.00125909
0.000138169
0.000228712
0.000407637
-0.0295629
0.000195953
0.000331538
-0.023901
0.000398338
-0.0251376
0.00039974
0.000654711
-0.0118176
0.00124808
0.000515466
0.000264722
8.21537e-05
-0.0118777
0.000813363
-0.0237118
0.00113782
-0.02936
-0.024894
0.00124664
0.000792614
0.000234419
0.000121383
0.000312028
-0.0239595
0.000396636
0.000416872
-0.029559
0.000168165
-0.0251768
0.000654421
0.000357316
0.000273277
-0.0211024
0.00139792
-0.00948074
-0.0285177
0.000340641
0.00132307
5.86674e-05
-0.0212236
0.000344665
0.000405084
7.04033e-05
-0.00952304
0.000115034
-0.0287019
0.000532987
0.00020303
-0.0244513
0.00123861
-0.0185514
1.59828e-06
-0.0246374
0.00144932
7.46416e-06
0.000355508
3.1473e-05
8.69242e-05
-0.0246841
0.000616409
0.000322513
-0.018653
4.28561e-07
-0.0248754
0.000645046
2.34975e-06
-0.0120304
-0.000288731
-0.000611855
-0.000706489
-0.00152331
-0.0122659
-0.000600088
-0.00963261
-0.000198125
-0.000131143
-0.0214935
-0.0291211
-0.000244392
-7.56992e-05
-0.00167512
-0.00981154
-0.000486578
-0.000354823
-0.0219447
-0.00128004
-0.0297917
-0.00109814
-0.000261144
-0.000524156
-0.00960202
-0.000519234
-0.00960215
-0.023284
-0.000357103
-0.000364191
-0.00124925
-0.000979465
-0.00978713
-0.00124822
-0.000977578
-0.00979001
-0.000986566
-0.000977398
-0.0238175
-0.000238985
-0.030051
-0.000201022
-0.0243432
-0.0256897
4.53725e-07
0.000111632
-0.0007884
-0.00119049
-0.000965139
-0.0307359
-0.000661639
-0.000748804
-0.0249816
-0.000789909
-0.0263979
-0.000470651
-0.00053512
-0.0120317
-0.000604986
-0.000293712
-0.00153622
-0.00068953
-0.0122706
-0.000216434
-0.0243929
-0.000223195
-0.0300521
-0.0257103
0.000123331
-2.95215e-05
-0.00119828
-0.000774683
-0.000725169
-0.0250453
-0.000798117
-0.000984247
-0.0307677
-0.000610969
-0.0264465
-0.000534718
-0.00043842
-0.000139651
-0.0215062
-0.000593798
-0.00963184
-0.0291148
-7.96756e-05
-0.000240961
-0.00032781
-0.0219442
-0.00130237
-0.00167351
-0.000489793
-0.00980619
-0.000249167
-0.0297451
-0.0011218
-3.47708e-05
-0.0250928
-0.000595719
-0.0188626
-6.89847e-07
-0.0253148
-0.000187635
-3.479e-06
-0.0015084
-0.000194366
-0.00010896
-0.025637
-0.00110439
-0.00155224
-0.019193
-5.0621e-07
-0.0258516
-0.0011372
1.28851e-05
-0.00111944
-0.00247367
-0.0124994
-0.00276854
-0.00999619
-0.000791019
-0.000599423
-0.0223734
-0.00219492
-0.0304353
-0.000529492
-0.00199069
-0.00996809
-0.00198945
-0.00997215
-0.00173675
-0.00172142
-0.0243394
-0.00192465
-0.0313954
-0.0014408
-0.0256172
-0.00109826
-0.00158568
-0.0270794
-0.00247666
-0.0011206
-0.0124987
-0.00143604
-0.0256485
-0.00192291
-0.0314209
-0.00158178
-0.00111597
-0.0271077
-0.000588459
-0.0223778
-0.00276299
-0.00998987
-0.00054747
-0.00218575
-0.0303633
-0.000325183
-0.0261526
-0.00257617
-0.0195674
-3.97974e-06
-0.00227581
-0.0264594
-1.78121e-05
0.0020284
-0.0276348
0.000497886
0.000921018
-0.0270322
-0.0268175
0.0019525
0.000599034
0.000830437
0.001999
0.00209265
-0.0274809
0.000606569
0.000944388
0.00194193
-0.0266973
0.00204676
-0.0264868
0.000659607
0.00166952
-0.0263523
0.00167292
-0.026393
-0.0258465
0.0014069
0.00141245
0.00161651
0.00161824
0.0017239
0.00134265
-0.0259357
0.00172867
0.00134646
-0.025983
0.0014715
0.0014715
-0.0253369
0.00186092
-0.0255724
0.000609539
0.00112371
-0.0250778
-0.0245064
0.00158176
0.000714854
0.00105283
0.00180727
0.00191875
-0.0250972
0.000705662
0.00116123
0.00156443
-0.0245247
0.00166512
-0.0238606
0.000769082
0.00095522
-0.0271268
0.00199698
-0.027676
-0.0269144
0.00190601
0.000639836
0.00197226
0.000879809
0.00100436
0.00193166
-0.0268475
0.00205941
0.000599324
-0.0274099
0.00202045
0.00069168
-0.0265628
0.0011258
-0.0250933
0.00185068
-0.025677
-0.0245367
0.00158177
0.00072125
0.00180863
0.00107669
0.00116304
0.00156685
-0.0245431
0.00191468
0.000736061
-0.0252306
0.00166783
0.000776771
-0.0239036
0.00130174
-0.0233686
0.000765322
0.00130372
-0.0233724
-0.0225588
0.000885631
0.000903553
0.00124908
0.00124686
0.00133612
-0.0226202
0.000829776
0.00133928
0.000828255
-0.0226252
0.000917541
-0.0217269
0.00092599
0.00033712
-0.0263697
0.00211204
-0.0266514
3.10089e-07
-0.0259299
0.00200083
-8.23605e-06
0.00215153
0.00031398
0.000347639
0.00208191
-0.025956
0.0022135
-0.0263188
1.70986e-06
0.00212911
-0.025499
1.05639e-06
0.000403369
-0.0239276
0.00196922
-0.0247048
-9.74876e-06
-0.023376
0.00168847
-2.32616e-06
0.00199494
0.000373686
0.000416892
0.00173947
-0.0233122
0.00203421
-0.0242357
-5.21873e-07
0.00177679
-0.0227036
1.91635e-06
0.000487304
-0.0216779
0.000916003
0.00137293
-0.0219825
4.07912e-07
-0.021075
0.000919635
1.79655e-06
0.00139741
0.000453454
0.000493874
-0.0208402
0.000983402
0.00141996
-0.0211732
1.02854e-06
-0.0201466
0.000984062
1.43138e-06
0.00228654
-0.0271994
0.000646064
0.00110251
-0.0263154
-0.0260354
0.00219891
0.00073867
0.00103506
0.00226054
0.00237526
-0.0268308
0.000684851
0.00118211
0.00225927
-0.026016
0.00234809
-0.0256733
0.00084722
0.00194178
-0.0255283
0.00194622
-0.0255822
-0.0247649
0.00165826
0.00165773
0.0018939
0.00189902
0.00202133
0.00162496
-0.025123
0.00202299
0.00162706
-0.0251806
0.00175722
0.00175894
-0.0242368
0.00207137
-0.024548
0.000781818
0.00128929
-0.0238479
-0.0230855
0.00176455
0.000820984
0.0012971
0.0021286
0.00222793
-0.0240468
0.000916095
0.00140417
0.00186214
-0.0232284
0.00195832
-0.0223787
0.000967024
0.00111824
-0.0264763
0.00236009
-0.0270648
-0.0260765
0.00224228
0.000749745
0.00232694
0.000965025
0.00115212
0.00227258
-0.0261091
0.00250375
0.000641392
-0.0266934
0.00240267
0.000800345
-0.0256236
0.00129359
-0.0238727
0.00206486
-0.0246455
-0.023148
0.00176494
0.000837886
0.00212109
0.00131505
0.00142156
0.00186119
-0.0232754
0.00219487
0.000931488
-0.0240542
0.00194475
0.000999935
-0.0224762
0.001384
-0.0217439
0.000828964
0.00138993
-0.0217601
-0.0207665
0.000904983
0.000908546
0.00149152
0.0014968
0.00156173
-0.0208451
0.000989348
0.00155282
0.00101069
-0.020882
0.00104184
-0.0197093
0.00101547
0.000386232
-0.0254099
0.00251113
-0.0259209
3.02879e-06
-0.0249275
0.00231287
1.30145e-05
0.00266508
0.000343365
0.000417971
0.002503
-0.0248654
0.0027182
-0.0255318
-2.04213e-06
0.00254393
-0.024332
-3.21962e-06
0.000433105
-0.0226343
0.00210252
-0.0236323
1.03673e-05
-0.0220248
0.0018524
4.37376e-06
0.00223588
0.000448853
0.000472878
0.00199838
-0.0218698
0.00224273
-0.0228772
-5.01971e-06
0.00198804
-0.0212991
1.84972e-06
0.000497055
-0.0199755
0.00101108
0.00150049
-0.0203649
-1.80443e-08
-0.0191862
0.00103719
-1.2141e-07
0.00160527
0.000506726
0.000545606
-0.018963
0.00108898
0.00160884
-0.0194825
3.53537e-06
-0.0181542
0.00111909
3.43355e-06
0.00245564
-0.0263624
0.000661432
0.00119833
-0.0256812
-0.0252203
0.00239327
0.000807674
0.00104498
0.00240625
0.00257473
-0.0259683
0.000716118
0.00120472
0.00231585
-0.0252778
0.00246121
-0.024725
0.000822928
0.00207711
-0.0247515
0.0020743
-0.0247938
-0.0237249
0.00181887
0.00182071
0.00194066
0.00194704
0.00209035
0.00169357
-0.0243853
0.00208323
0.00167376
-0.0243761
0.00185258
0.00185136
-0.0232553
0.00228641
-0.0235358
0.000939866
0.00146308
-0.0226213
-0.0216996
0.00204894
0.00102144
0.00137409
0.0022275
0.00236194
-0.0230263
0.000963928
0.00151113
0.0020055
-0.0220579
0.00214235
-0.0210354
0.00106652
0.00119084
-0.0257119
0.00255886
-0.0262665
-0.0251505
0.00245816
0.000818419
0.00248836
0.00105017
0.0011704
0.00236111
-0.0252742
0.00264618
0.000706306
-0.0258592
0.00253633
0.000801672
-0.0246719
0.00147698
-0.0226783
0.00232708
-0.0235247
-0.0217693
0.00205068
0.0010465
0.00224144
0.00134757
0.00150881
0.00200347
-0.0220978
0.00241696
0.000951188
-0.0230089
0.00212997
0.00107657
-0.0210501
0.00166664
-0.0199661
0.00106893
0.00164474
-0.0199998
-0.0186393
0.00115466
0.00108676
0.00163903
0.00164372
0.00176202
-0.0190932
0.00114646
0.00174988
0.00116453
-0.0191405
0.00124345
-0.0175881
0.00121722
0.000455742
-0.0243772
0.00280394
-0.0251568
3.72029e-06
-0.0237688
0.0026829
1.35792e-05
0.00279869
0.000349446
0.000423219
0.00270528
-0.0239053
0.00284978
-0.0247981
-3.28e-06
0.00278193
-0.023282
4.21879e-06
0.000515244
-0.0210609
0.00246727
-0.0221667
1.11841e-05
-0.0204974
0.00217735
3.47162e-06
0.00254031
0.000494864
0.000518437
0.00221707
-0.0201795
0.00260771
-0.0214993
1.63689e-06
0.00225598
-0.019618
-9.15655e-06
0.000593162
-0.0178217
0.00115804
0.00178059
-0.0185365
8.2649e-07
-0.0169926
0.00121149
6.06114e-07
0.00184961
0.000562401
0.000629609
-0.0166565
0.0012982
0.00188334
-0.0175912
-1.02982e-05
-0.0158186
0.00134058
-1.63902e-06
0.00261964
-0.0256362
0.000726673
0.00117148
-0.0248437
-0.0242463
0.00249301
0.000819407
0.000989955
0.00235973
0.00253649
-0.0253549
0.000712415
0.00113832
0.00227707
-0.0244761
0.00251884
-0.0238928
0.000802532
0.00201498
-0.0240628
0.00203735
-0.0240146
-0.0228825
0.00184313
0.00183638
0.00178671
0.00176572
0.0019299
0.00162503
-0.0237762
0.00198632
0.00158797
-0.0237776
0.0018247
0.00180064
-0.0225916
0.0023642
-0.0225086
0.000968427
0.0015336
-0.021598
-0.0204304
0.00219127
0.00110154
0.00135211
0.00212416
0.00238885
-0.0219903
0.000963816
0.00156654
0.0020156
-0.0212313
0.00223341
-0.0198823
0.00117387
0.00115366
-0.024908
0.00262551
-0.025487
-0.0242301
0.00254751
0.000789822
0.00235121
0.00101505
0.00113781
0.00227992
-0.0245786
0.00251522
0.000674825
-0.0251497
0.00249919
0.000741728
-0.023818
0.00152667
-0.0215944
0.00243601
-0.0225215
-0.0204075
0.00218886
0.00113123
0.00218263
0.00130749
0.00151759
0.00203243
-0.0211612
0.00242969
0.000898899
-0.0220434
0.00227587
0.00111658
-0.0198527
0.00185123
-0.0182601
0.00119944
0.00183757
-0.0183356
-0.0165406
0.00133383
0.00130748
0.00175072
0.00174796
0.00193503
-0.0175122
0.00130114
0.00192916
0.00129406
-0.017535
0.00141314
-0.0154839
0.00139428
0.000389102
-0.0234514
0.0028259
-0.024463
-1.38247e-05
-0.0228721
0.00281007
-4.96409e-06
0.00261374
0.000350938
0.000363882
0.00264915
-0.023109
0.00269065
-0.0241604
1.53843e-05
0.00274639
-0.0225687
4.79428e-06
0.000564015
-0.0193191
0.00269228
-0.0208798
-9.51655e-06
-0.0187096
0.00237251
-2.46534e-05
0.00262463
0.000464194
0.000585988
0.00243832
-0.0186022
0.00273282
-0.0204053
3.27006e-06
0.00251135
-0.0179197
1.75482e-05
0.000662738
-0.0154317
0.00139976
0.00198967
-0.0165704
-2.62181e-05
-0.0145946
0.0014364
-7.9912e-06
0.00205406
0.0006476
0.000710662
-0.0141748
0.00149961
0.00209002
-0.0155146
1.31465e-05
-0.013349
0.0015408
1.42561e-05
0.00230648
-0.025147
0.000660089
0.00103804
-0.0243139
-0.023708
0.00240288
0.000756841
0.00078985
0.00179568
0.00202555
-0.025039
0.000562929
0.000951801
0.00190526
-0.0243415
0.00217931
-0.0236182
0.000708245
0.00187516
-0.0236099
0.00188401
-0.0236762
-0.0224111
0.00180131
0.00177732
0.00135068
0.00134535
0.00164735
0.00131216
-0.0235733
0.00168734
0.00134488
-0.023682
0.0016666
0.00163057
-0.0223736
0.00241701
-0.0216388
0.000916673
0.0015767
-0.0209127
-0.0193468
0.00229341
0.00116476
0.00117174
0.00199827
0.00233713
-0.0214963
0.000871428
0.0015026
0.00195349
-0.0207039
0.00229926
-0.0189073
0.00110102
0.00105043
-0.0243732
0.0022776
-0.0249761
-0.0235936
0.00237022
0.000733415
0.00177542
0.000704905
0.000923241
0.00190903
-0.0243385
0.00195004
0.000533629
-0.0249916
0.00215459
0.00069741
-0.0235723
0.00153163
-0.0208194
0.00240902
-0.0216791
-0.0193188
0.00231518
0.00109164
0.00201642
0.00119437
0.00150093
0.00201669
-0.02069
0.00231549
0.000862253
-0.0215078
0.00234684
0.00107569
-0.0189249
0.00201944
-0.0168008
0.00138019
0.00203297
-0.0167932
-0.0144561
0.0015039
0.00152077
0.00183108
0.00180618
0.00208009
-0.0161431
0.00139248
0.00211225
0.00136142
-0.0161139
0.00158579
-0.0134676
0.00161802
0.000393705
-0.0229134
0.00246628
-0.0239414
2.71446e-06
-0.0223403
0.00262638
5.21199e-06
0.00211749
0.000289973
0.000392751
0.0023649
-0.0228561
0.00219283
-0.0239109
-9.86464e-06
0.00248014
-0.0222351
1.65358e-07
0.000581179
-0.0180224
0.00273384
-0.0200683
1.60112e-05
-0.0172745
0.00265364
1.61909e-05
0.00257729