/*--------------------------------*- C++ -*----------------------------------*\
| =========                 |                                                 |
| \\      /  F ield         | OpenFOAM: The Open Source CFD Toolbox           |
|  \\    /   O peration     | Version:  2.3.1                                 |
|   \\  /    A nd           | Web:      www.OpenFOAM.org                      |
|    \\/     M anipulation  |                                                 |
\*---------------------------------------------------------------------------*/
FoamFile
{
    version     2.0;
    format      ascii;
    class       volScalarField;
    location    "3000/fluid";
    object      T;
}
// * * * * * * * * * * * * * * * * * * * * * * * * * * * * * * * * * * * * * //

dimensions      [0 0 0 1 0 0 0];

internalField   nonuniform List<scalar> 
25373
(
300.349
300.356
300.349
300.36
300.376
300.356
300.376
300.399
300.35
300.361
300.386
300.414
300.344
300.352
300.344
300.358
300.377
300.352
300.377
300.407
300.345
300.359
300.391
300.426
300.336
300.34
300.336
300.346
300.366
300.34
300.366
300.401
300.337
300.348
300.384
300.428
300.325
300.332
300.325
300.339
300.365
300.332
300.365
300.411
300.327
300.343
300.389
300.446
300.312
300.321
300.312
300.331
300.365
300.321
300.365
300.426
300.314
300.335
300.397
300.474
300.293
300.305
300.293
300.319
300.366
300.305
300.366
300.45
300.295
300.325
300.41
300.515
300.267
300.284
300.267
300.303
300.367
300.284
300.368
300.484
300.27
300.311
300.428
300.577
300.23
300.253
300.23
300.278
300.367
300.253
300.367
300.532
300.234
300.289
300.451
300.673
300.182
300.21
300.182
300.24
300.353
300.21
300.353
300.588
300.186
300.254
300.469
300.817
300.123
300.152
300.123
300.183
300.308
300.152
300.308
300.608
300.127
300.198
300.45
300.947
300.349
300.347
300.35
300.35
300.35
300.348
300.348
300.348
300.349
300.349
300.349
300.346
300.346
300.347
300.35
300.351
300.353
300.347
300.348
300.349
300.352
300.349
300.347
300.351
300.35
300.353
300.347
300.349
300.348
300.352
300.35
300.35
300.35
300.348
300.348
300.348
300.352
300.35
300.353
300.348
300.35
300.348
300.351
300.344
300.34
300.345
300.345
300.345
300.341
300.341
300.342
300.343
300.343
300.344
300.339
300.339
300.34
300.345
300.346
300.349
300.34
300.341
300.343
300.347
300.344
300.34
300.346
300.345
300.349
300.34
300.343
300.341
300.347
300.345
300.345
300.345
300.341
300.341
300.342
300.347
300.345
300.348
300.341
300.344
300.341
300.344
300.336
300.331
300.337
300.336
300.337
300.332
300.332
300.333
300.335
300.335
300.336
300.33
300.33
300.331
300.337
300.339
300.344
300.331
300.332
300.335
300.341
300.336
300.331
300.339
300.337
300.344
300.331
300.335
300.332
300.341
300.336
300.337
300.337
300.332
300.332
300.333
300.34
300.337
300.341
300.332
300.335
300.333
300.337
300.326
300.319
300.327
300.326
300.328
300.321
300.32
300.322
300.325
300.325
300.326
300.318
300.318
300.319
300.327
300.33
300.337
300.319
300.321
300.324
300.332
300.326
300.319
300.33
300.327
300.337
300.319
300.324
300.321
300.332
300.326
300.327
300.328
300.32
300.32
300.322
300.331
300.327
300.332
300.321
300.325
300.321
300.327
300.312
300.303
300.313
300.313
300.315
300.305
300.304
300.307
300.311
300.311
300.312
300.302
300.302
300.303
300.314
300.318
300.327
300.303
300.306
300.31
300.321
300.312
300.303
300.318
300.314
300.327
300.303
300.31
300.306
300.321
300.313
300.313
300.315
300.304
300.305
300.306
300.319
300.314
300.32
300.305
300.311
300.306
300.313
300.293
300.281
300.295
300.294
300.297
300.283
300.283
300.286
300.291
300.291
300.293
300.279
300.279
300.281
300.296
300.302
300.314
300.281
300.284
300.291
300.306
300.293
300.281
300.302
300.296
300.314
300.281
300.291
300.284
300.306
300.294
300.295
300.297
300.283
300.283
300.285
300.302
300.296
300.305
300.284
300.292
300.284
300.295
300.267
300.25
300.269
300.269
300.272
300.252
300.252
300.256
300.265
300.265
300.267
300.248
300.248
300.251
300.271
300.279
300.296
300.25
300.255
300.264
300.284
300.267
300.25
300.279
300.271
300.296
300.25
300.264
300.255
300.284
300.269
300.269
300.272
300.252
300.252
300.256
300.28
300.271
300.283
300.254
300.265
300.254
300.269
300.23
300.207
300.233
300.233
300.237
300.21
300.21
300.215
300.228
300.228
300.232
300.205
300.205
300.209
300.236
300.247
300.27
300.208
300.214
300.226
300.252
300.23
300.207
300.247
300.236
300.27
300.208
300.226
300.214
300.252
300.233
300.233
300.237
300.21
300.21
300.215
300.247
300.235
300.252
300.212
300.227
300.213
300.232
300.181
300.153
300.184
300.184
300.19
300.156
300.156
300.162
300.179
300.179
300.183
300.15
300.15
300.155
300.188
300.202
300.23
300.153
300.16
300.174
300.204
300.181
300.153
300.202
300.188
300.23
300.153
300.174
300.16
300.204
300.184
300.184
300.19
300.156
300.156
300.162
300.202
300.187
300.208
300.158
300.175
300.159
300.181
300.123
300.126
300.126
300.131
300.12
300.12
300.125
300.13
300.144
300.173
300.123
300.144
300.13
300.173
300.126
300.126
300.131
300.144
300.128
300.15
300.345
300.351
300.358
300.337
300.341
300.349
300.357
300.355
300.355
300.369
300.343
300.353
300.353
300.369
300.376
300.383
300.396
300.365
300.377
300.385
300.4
300.351
300.344
300.358
300.337
300.348
300.341
300.357
300.383
300.376
300.396
300.365
300.385
300.377
300.4
300.416
300.416
300.434
300.405
300.423
300.423
300.443
300.364
300.351
300.368
300.346
300.363
300.349
300.367
300.407
300.389
300.412
300.386
300.411
300.392
300.418
300.447
300.434
300.454
300.436
300.458
300.443
300.465
300.338
300.346
300.355
300.327
300.333
300.343
300.353
300.352
300.351
300.369
300.335
300.349
300.349
300.37
300.378
300.388
300.405
300.365
300.38
300.391
300.411
300.346
300.337
300.355
300.327
300.343
300.333
300.353
300.388
300.378
300.405
300.365
300.391
300.38
300.411
300.431
300.431
300.454
300.418
300.441
300.441
300.467
300.363
300.346
300.367
300.339
300.362
300.343
300.368
300.418
300.395
300.425
300.393
300.426
300.4
300.434
300.471
300.455
300.48
300.459
300.487
300.468
300.497
300.328
300.339
300.351
300.313
300.322
300.335
300.349
300.347
300.347
300.371
300.325
300.344
300.344
300.372
300.383
300.396
300.418
300.366
300.386
300.401
300.428
300.339
300.328
300.351
300.313
300.335
300.322
300.35
300.396
300.383
300.418
300.366
300.401
300.386
300.428
300.453
300.453
300.484
300.437
300.469
300.469
300.504
300.362
300.339
300.368
300.33
300.362
300.335
300.369
300.436
300.405
300.446
300.403
300.448
300.412
300.46
300.507
300.485
300.519
300.493
300.531
300.505
300.545
300.315
300.33
300.347
300.295
300.307
300.325
300.345
300.341
300.341
300.374
300.312
300.338
300.338
300.376
300.39
300.408
300.439
300.367
300.395
300.416
300.453
300.33
300.315
300.347
300.295
300.325
300.307
300.345
300.408
300.39
300.439
300.367
300.416
300.395
300.453
300.487
300.487
300.529
300.466
300.51
300.51
300.56
300.362
300.33
300.371
300.318
300.362
300.325
300.372
300.463
300.421
300.476
300.418
300.481
300.431
300.497
300.56
300.53
300.577
300.543
300.597
300.561
300.617
300.297
300.318
300.341
300.27
300.286
300.31
300.337
300.333
300.333
300.378
300.292
300.327
300.327
300.38
300.401
300.425
300.469
300.368
300.407
300.436
300.488
300.318
300.298
300.342
300.27
300.31
300.286
300.337
300.425
300.401
300.469
300.368
300.436
300.407
300.488
300.537
300.537
300.598
300.506
300.571
300.571
300.645
300.362
300.319
300.374
300.301
300.361
300.31
300.375
300.503
300.444
300.522
300.439
300.529
300.458
300.552
300.643
300.6
300.668
300.62
300.702
300.648
300.733
300.272
300.3
300.331
300.233
300.254
300.286
300.322
300.319
300.319
300.381
300.261
300.308
300.308
300.379
300.413
300.447
300.51
300.362
300.416
300.457
300.533
300.3
300.272
300.331
300.233
300.286
300.254
300.322
300.447
300.413
300.51
300.362
300.457
300.416
300.533
300.611
300.611
300.705
300.56
300.659
300.659
300.779
300.359
300.3
300.375
300.274
300.353
300.286
300.373
300.56
300.474
300.589
300.463
300.595
300.489
300.631
300.778
300.708
300.819
300.739
300.877
300.784
300.935
300.232
300.267
300.307
300.183
300.206
300.243
300.286
300.292
300.292
300.371
300.214
300.27
300.27
300.357
300.416
300.462
300.555
300.336
300.407
300.46
300.567
300.267
300.232
300.307
300.183
300.243
300.206
300.286
300.462
300.416
300.555
300.336
300.46
300.407
300.567
300.712
300.713
300.872
300.607
300.767
300.767
301.149
300.343
300.267
300.365
300.229
300.326
300.243
300.349
300.632
300.501
300.677
300.469
300.664
300.506
300.721
300.994
300.878
301.115
300.838
301.284
300.961
301.598
300.176
300.212
300.256
300.239
300.239
300.329
300.383
300.44
300.562
300.212
300.176
300.256
300.44
300.383
300.562
300.697
300.697
301.109
300.297
300.212
300.321
300.674
300.492
300.676
301.002
301.173
301.353
301.307
301.322
301.276
301.2
301.511
301.191
301.423
301.262
301.184
301.172
300.975
301.199
301.033
301.167
301.003
301.356
301.357
301.303
301.494
300.093
300.095
300.095
300.1
300.091
300.091
300.094
300.093
300.099
300.111
300.137
300.093
300.093
300.111
300.099
300.137
300.095
300.095
300.1
300.097
300.112
300.098
300.117
300.119
300.14
300.174
300.214
300.147
300.198
300.198
300.283
300.263
300.336
300.393
300.119
300.174
300.14
300.214
300.263
300.393
300.336
300.161
300.252
300.173
300.966
301.23
301.126
301.127
301.215
300.867
301.06
300.949
301.529
301.45
301.198
301.179
301.041
301.01
301.403
301.521
301.048
300.87
301.146
300.858
301.016
300.926
301.103
301.12
301.172
301.12
301.045
301.26
301.211
301.417
301.531
301.593
301.51
301.523
301.503
301.425
301.108
300.961
301.224
301.067
301.067
300.938
301.575
301.572
301.399
301.583
301.463
301.378
301.487
301.455
301.314
301.395
301.431
301.361
301.287
301.484
301.492
301.488
301.572
301.424
301.544
301.502
301.47
301.553
301.38
301.54
301.468
301.44
301.56
301.408
301.53
301.445
301.531
301.56
301.577
301.541
301.481
301.349
301.431
301.473
301.418
301.546
301.515
301.346
301.42
301.328
301.454
301.482
301.396
301.487
301.474
301.464
301.354
301.236
301.466
301.361
301.469
301.348
301.415
301.483
301.421
301.362
301.518
301.461
301.33
301.412
301.267
301.423
301.204
301.34
301.279
301.209
301.363
301.308
301.214
301.337
301.184
301.38
301.239
301.228
301.391
301.232
301.404
301.392
301.243
301.483
301.454
301.463
301.513
301.515
300.518
300.518
300.567
300.678
300.678
300.276
300.403
300.444
300.648
301.49
301.423
301.374
301.469
301.232
301.457
301.358
301.425
301.2
301.341
301.452
301.209
301.34
301.179
301.374
301.23
301.405
301.397
301.241
301.411
301.294
301.349
301.325
300.873
301.071
301.017
301.017
300.958
300.958
300.905
301.079
301.093
301.013
301.225
300.996
301.198
301.102
301.031
300.916
300.938
301.126
300.899
301.098
301.054
301.38
301.305
301.227
301.364
301.255
301.312
301.433
301.292
301.388
301.251
301.355
301.173
301.228
301.263
301.196
301.322
301.289
301.182
301.263
301.163
301.295
301.224
301.215
301.345
301.201
301.326
301.316
301.208
301.269
301.144
301.104
301.143
301.207
301.26
301.101
301.422
301.34
301.355
301.307
301.219
301.332
301.28
301.203
300.817
300.777
300.94
300.817
300.777
300.94
300.808
300.666
300.832
301.093
301.27
301.215
301.137
301.036
300.918
301.053
301.077
300.96
300.975
301.147
300.987
300.818
300.973
300.896
300.923
300.859
301.046
300.823
300.788
300.937
300.782
300.702
300.918
300.813
300.824
300.788
300.937
300.782
300.702
300.918
300.813
300.819
300.686
300.841
300.832
300.811
300.695
300.685
300.573
300.616
300.702
300.76
301.665
301.654
301.707
301.762
301.592
301.65
301.712
301.595
301.653
301.715
301.589
301.648
301.71
301.601
301.658
301.719
301.641
301.696
301.601
301.659
301.719
301.586
301.643
301.704
301.575
301.633
301.695
301.589
301.646
301.706
301.571
301.632
301.579
301.639
301.701
301.594
301.65
301.71
301.576
301.634
301.695
301.662
301.643
301.696
301.753
301.631
301.686
301.743
301.652
301.705
301.761
301.644
301.698
301.754
301.633
301.688
301.745
301.589
301.648
301.71
301.604
301.662
301.723
301.635
301.631
301.685
301.743
301.625
301.62
301.676
301.735
301.594
301.652
301.591
301.65
301.711
301.605
301.616
301.598
301.657
301.718
301.613
301.669
301.728
301.609
301.666
301.726
301.594
301.653
301.714
301.609
301.664
301.724
301.623
301.677
301.735
301.615
301.67
301.729
301.615
301.671
301.73
301.638
301.692
301.749
301.631
301.686
301.743
301.627
301.683
301.741
301.647
301.701
301.757
301.638
301.691
301.748
301.626
301.68
301.738
301.619
301.674
301.733
301.621
301.677
301.735
301.599
301.657
301.717
301.608
301.665
301.725
301.609
301.666
301.726
301.578
301.638
301.701
301.565
301.624
301.686
301.568
301.627
301.69
301.561
301.621
301.685
301.583
301.642
301.703
301.569
301.629
301.692
301.582
301.64
301.702
301.557
301.618
301.682
301.559
301.62
301.684
301.559
301.62
301.685
301.554
301.616
301.682
301.553
301.615
301.68
301.582
301.641
301.703
301.575
301.632
301.693
301.565
301.626
301.689
301.567
301.624
301.686
301.557
301.616
301.679
301.59
301.647
301.707
301.574
301.632
301.694
301.553
301.613
301.676
301.554
301.614
301.676
301.538
301.598
301.663
301.548
301.609
301.673
301.553
301.613
301.676
301.547
301.607
301.671
301.536
301.6
301.667
301.545
301.542
301.605
301.671
301.543
301.605
301.67
301.544
301.606
301.671
301.54
301.603
301.67
301.538
301.601
301.668
300.674
301.298
300.651
300.79
300.749
300.917
300.651
300.79
300.749
300.917
300.614
300.779
300.803
300.632
300.944
300.842
300.989
301.112
301.113
300.927
301.045
301.022
300.734
300.544
300.584
301.438
301.434
301.408
301.455
301.258
301.188
301.334
301.394
301.34
301.34
301.22
301.327
301.165
301.365
301.196
301.228
301.217
301.123
301.203
301.079
301.527
301.526
301.59
301.527
301.59
301.529
301.592
301.535
301.597
301.528
300.35
300.361
300.386
300.414
300.432
300.345
300.359
300.391
300.426
300.45
300.337
300.348
300.384
300.428
300.459
300.327
300.343
300.389
300.446
300.489
300.314
300.335
300.397
300.474
300.531
300.296
300.325
300.41
300.515
300.594
300.27
300.311
300.428
300.578
300.692
300.234
300.289
300.451
300.673
300.86
300.186
300.254
300.469
300.818
301.071
300.127
300.199
300.45
301.048
301.489
300.35
300.352
300.353
300.348
300.348
300.35
300.351
300.345
300.347
300.348
300.341
300.341
300.344
300.344
300.337
300.34
300.341
300.332
300.333
300.335
300.337
300.327
300.331
300.332
300.321
300.321
300.325
300.327
300.314
300.319
300.32
300.306
300.306
300.311
300.313
300.296
300.302
300.305
300.284
300.285
300.292
300.295
300.271
300.279
300.283
300.254
300.254
300.265
300.269
300.235
300.247
300.252
300.212
300.213
300.227
300.232
300.187
300.202
300.209
300.158
300.159
300.175
300.181
300.128
300.144
300.15
300.351
300.364
300.368
300.346
300.349
300.364
300.368
300.389
300.407
300.412
300.386
300.392
300.412
300.418
300.434
300.447
300.454
300.436
300.443
300.458
300.465
300.467
300.467
300.475
300.473
300.481
300.481
300.49
300.346
300.363
300.368
300.339
300.343
300.362
300.368
300.395
300.418
300.425
300.393
300.4
300.426
300.435
300.455
300.471
300.48
300.459
300.468
300.487
300.497
300.499
300.499
300.508
300.508
300.519
300.519
300.53
300.339
300.362
300.368
300.33
300.335
300.362
300.369
300.405
300.436
300.446
300.403
300.412
300.448
300.46
300.485
300.507
300.519
300.493
300.505
300.531
300.545
300.544
300.544
300.557
300.559
300.574
300.574
300.589
300.33
300.362
300.37
300.318
300.325
300.362
300.372
300.421
300.463
300.476
300.418
300.431
300.481
300.497
300.531
300.56
300.577
300.543
300.561
300.597
300.617
300.611
300.611
300.629
300.637
300.658
300.658
300.68
300.318
300.362
300.373
300.301
300.31
300.361
300.375
300.444
300.503
300.522
300.439
300.458
300.529
300.552
300.6
300.643
300.668
300.62
300.648
300.702
300.733
300.719
300.719
300.746
300.764
300.798
300.798
300.833
300.3
300.359
300.375
300.274
300.286
300.353
300.373
300.474
300.56
300.589
300.463
300.49
300.595
300.631
300.708
300.778
300.819
300.738
300.784
300.877
300.935
300.906
300.906
300.954
300.992
301.092
301.092
301.216
300.268
300.343
300.365
300.229
300.243
300.326
300.349
300.501
300.632
300.677
300.469
300.506
300.664
300.721
300.879
300.994
301.115
300.838
300.961
301.286
301.598
301.204
301.204
301.366
301.416
300.212
300.297
300.321
300.492
300.675
300.676
301.002
301.391
301.39
301.173
301.353
301.308
301.567
301.323
301.276
301.2
301.566
301.469
301.18
301.281
301.344
301.255
301.313
301.524
301.469
301.18
301.281
301.343
301.255
301.313
301.524
301.506
301.337
301.337
301.636
301.308
301.584
301.584
301.553
301.291
301.599
301.599
301.353
301.353
301.587
301.439
301.39
301.629
301.587
301.439
301.39
301.629
301.615
301.668
301.67
301.322
300.975
301.199
301.033
301.166
301.003
301.356
301.314
301.192
301.582
301.262
301.185
301.467
301.357
301.303
301.494
301.581
300.097
300.098
300.112
300.117
300.161
300.174
300.253
301.144
300.867
300.949
301.06
301.363
301.041
301.01
301.404
301.349
301.198
301.484
301.523
301.343
301.134
301.134
301.172
301.206
301.253
301.253
300.87
300.947
301.146
300.858
300.926
301.016
301.103
301.567
301.565
301.532
301.12
301.172
301.121
301.526
301.046
301.26
301.211
301.417
301.531
301.51
301.593
301.523
301.503
301.425
301.525
301.614
301.609
301.614
301.609
301.443
301.576
301.571
301.56
301.4
301.583
301.485
301.463
301.378
301.509
301.488
301.484
301.508
301.466
301.412
301.55
301.55
301.439
301.439
301.587
301.501
301.519
301.629
301.629
301.622
301.51
301.51
301.483
301.574
301.465
301.611
301.456
301.602
301.492
301.483
301.574
301.465
301.611
301.456
301.603
301.492
301.535
301.493
301.493
301.639
301.428
301.589
301.589
301.553
301.552
301.529
301.613
301.47
301.599
301.553
301.552
301.529
301.613
301.47
301.601
301.615
301.653
301.534
301.609
301.569
301.625
301.618
301.541
301.432
301.534
301.532
301.523
301.623
301.573
301.599
301.632
301.597
301.457
301.414
301.485
301.515
301.504
301.563
301.624
301.595
301.587
301.651
301.534
301.609
301.569
301.625
301.617
301.54
301.431
301.534
301.532
301.522
301.623
301.574
301.599
301.632
301.596
301.456
301.413
301.484
301.515
301.502
301.562
301.624
301.596
301.587
301.641
301.64
301.68
301.664
301.664
301.455
301.512
301.394
301.43
301.36
301.286
301.484
301.492
301.528
301.488
301.573
301.426
301.542
301.501
301.425
301.525
301.471
301.483
301.554
301.381
301.541
301.439
301.559
301.408
301.444
301.529
301.54
301.481
301.349
301.43
301.472
301.419
301.547
301.531
301.561
301.578
301.515
301.346
301.328
301.422
301.453
301.395
301.483
301.487
301.474
301.464
301.529
301.524
301.484
301.35
301.465
301.358
301.209
301.179
301.308
301.214
301.338
301.184
301.378
301.392
301.229
301.239
301.232
301.404
301.391
301.243
301.47
301.53
301.415
301.483
301.421
301.362
301.52
301.449
301.46
301.268
301.412
301.329
301.423
301.204
301.341
301.28
301.454
301.462
301.512
301.516
300.276
300.403
300.444
300.648
301.209
301.342
301.179
301.373
301.425
301.199
301.341
301.47
301.357
301.23
301.404
301.397
301.241
301.49
301.423
301.375
301.453
301.479
301.345
301.495
301.491
301.56
301.399
301.398
301.412
301.295
301.467
301.44
301.514
301.351
301.326
301.465
301.437
301.513
301.065
301.101
301.194
301.194
301.172
301.083
301.083
301.079
301.013
301.094
301.225
300.997
301.198
301.103
301.031
300.916
300.938
301.126
300.899
301.098
301.055
301.366
301.382
301.424
301.497
301.351
301.405
301.451
301.383
301.515
301.43
301.478
301.421
301.469
301.39
301.366
301.382
301.424
301.497
301.351
301.405
301.451
301.383
301.515
301.429
301.478
301.421
301.469
301.39
301.467
301.418
301.32
301.431
301.371
301.382
301.517
301.467
301.418
301.32
301.431
301.371
301.382
301.519
301.196
301.172
301.289
301.182
301.263
301.163
301.295
301.345
301.215
301.224
301.201
301.326
301.316
301.209
301.379
301.305
301.227
301.365
301.255
301.313
301.434
301.252
301.39
301.294
301.356
301.174
301.228
301.263
301.269
301.215
301.103
301.207
301.143
301.259
301.101
301.459
301.444
301.422
301.341
301.378
301.355
301.307
301.463
301.442
301.378
301.333
301.388
301.281
300.666
300.808
300.832
301.092
301.27
301.137
301.215
301.033
301.002
301.072
301.152
300.994
301.131
301.05
301.033
301.002
301.072
301.152
300.994
301.13
301.05
301.036
300.918
301.053
301.077
300.96
300.975
301.148
300.987
300.818
300.896
300.973
300.859
300.923
301.046
300.686
300.82
300.841
300.833
300.694
300.811
300.685
300.573
300.616
300.701
300.76
301.673
301.724
301.778
301.665
301.716
301.771
301.673
301.724
301.778
301.717
301.771
301.681
301.732
301.785
301.682
301.732
301.786
301.655
301.708
301.763
301.657
301.71
301.766
301.647
301.701
301.757
301.657
301.71
301.765
301.649
301.702
301.758
301.659
301.712
301.768
301.65
301.704
301.761
301.659
301.712
301.767
301.651
301.704
301.761
301.731
301.778
301.827
301.661
301.714
301.769
301.665
301.717
301.772
301.661
301.713
301.769
301.665
301.717
301.772
301.704
301.753
301.804
301.668
301.72
301.775
301.716
301.764
301.814
301.703
301.752
301.804
301.669
301.721
301.776
301.717
301.765
301.815
301.71
301.759
301.81
301.724
301.771
301.821
301.725
301.771
301.82
301.726
301.773
301.822
301.728
301.773
301.822
301.644
301.698
301.755
301.638
301.692
301.75
301.593
301.652
301.713
301.596
301.654
301.715
301.606
301.663
301.723
301.594
301.653
301.714
301.641
301.696
301.753
301.601
301.658
301.718
301.644
301.698
301.755
301.639
301.693
301.75
301.754
301.584
301.642
301.703
301.582
301.641
301.704
301.596
301.651
301.71
301.578
301.636
301.697
301.696
301.639
301.694
301.751
301.63
301.686
301.745
301.638
301.694
301.752
301.638
301.693
301.751
301.63
301.686
301.745
301.637
301.692
301.751
301.621
301.679
301.738
301.622
301.679
301.739
301.65
301.704
301.76
301.621
301.679
301.739
301.622
301.68
301.739
301.67
301.722
301.776
301.662
301.714
301.769
301.67
301.721
301.776
301.715
301.769
301.685
301.736
301.789
301.694
301.744
301.796
301.688
301.738
301.791
301.679
301.729
301.783
301.696
301.745
301.797
301.686
301.737
301.79
301.694
301.744
301.796
301.688
301.739
301.792
301.68
301.731
301.784
301.695
301.745
301.797
301.642
301.696
301.752
301.63
301.685
301.743
301.645
301.698
301.754
301.652
301.705
301.761
301.633
301.688
301.745
301.647
301.702
301.759
301.637
301.693
301.751
301.663
301.714
301.769
301.632
301.687
301.745
301.647
301.702
301.759
301.639
301.694
301.752
301.662
301.714
301.768
301.635
301.689
301.746
301.607
301.664
301.724
301.597
301.654
301.715
301.596
301.654
301.715
301.618
301.674
301.732
301.618
301.674
301.732
301.617
301.673
301.732
301.618
301.673
301.732
301.666
301.718
301.773
301.657
301.71
301.765
301.666
301.718
301.773
301.657
301.71
301.765
301.728
301.776
301.826
301.728
301.776
301.825
301.726
301.773
301.824
301.724
301.772
301.822
301.724
301.771
301.822
301.724
301.772
301.822
301.723
301.771
301.821
301.694
301.744
301.797
301.698
301.747
301.8
301.698
301.748
301.8
301.686
301.737
301.79
301.686
301.737
301.79
301.668
301.719
301.774
301.674
301.725
301.78
301.67
301.721
301.775
301.678
301.73
301.784
301.669
301.72
301.775
301.674
301.726
301.78
301.671
301.722
301.776
301.679
301.731
301.785
301.674
301.726
301.78
301.677
301.729
301.784
301.678
301.729
301.784
301.708
301.756
301.806
301.703
301.751
301.802
301.704
301.753
301.804
301.7
301.749
301.8
301.71
301.758
301.809
301.695
301.745
301.797
301.699
301.748
301.8
301.7
301.749
301.801
301.682
301.732
301.786
301.686
301.736
301.789
301.69
301.74
301.793
301.675
301.726
301.781
301.683
301.733
301.785
301.689
301.739
301.791
301.704
301.753
301.805
301.714
301.762
301.812
301.706
301.755
301.807
301.704
301.753
301.804
301.701
301.75
301.801
301.702
301.751
301.802
301.699
301.748
301.8
301.71
301.758
301.809
301.695
301.745
301.797
301.699
301.748
301.8
301.7
301.75
301.802
301.683
301.734
301.787
301.686
301.736
301.789
301.69
301.741
301.793
301.677
301.728
301.782
301.682
301.733
301.785
301.688
301.738
301.79
301.704
301.753
301.804
301.714
301.762
301.812
301.707
301.755
301.807
301.726
301.773
301.821
301.717
301.765
301.816
301.716
301.765
301.815
301.728
301.773
301.822
301.727
301.773
301.822
301.724
301.771
301.82
301.723
301.77
301.819
301.724
301.771
301.82
301.723
301.769
301.819
301.59
301.649
301.711
301.595
301.654
301.715
301.592
301.65
301.711
301.605
301.663
301.724
301.631
301.686
301.743
301.629
301.684
301.742
301.621
301.677
301.736
301.617
301.674
301.733
301.59
301.65
301.712
301.581
301.64
301.703
301.614
301.67
301.729
301.599
301.658
301.719
301.612
301.669
301.728
301.608
301.665
301.726
301.589
301.648
301.71
301.601
301.658
301.719
301.609
301.665
301.724
301.624
301.678
301.735
301.615
301.669
301.728
301.616
301.672
301.731
301.618
301.674
301.732
301.621
301.676
301.735
301.638
301.692
301.749
301.633
301.687
301.744
301.628
301.683
301.741
301.647
301.701
301.757
301.638
301.691
301.748
301.627
301.682
301.739
301.599
301.656
301.717
301.608
301.665
301.724
301.609
301.666
301.726
301.688
301.745
301.679
301.737
301.713
301.595
301.653
301.714
301.662
301.722
301.582
301.642
301.705
301.671
301.73
301.57
301.631
301.695
301.57
301.631
301.696
301.559
301.62
301.685
301.559
301.62
301.685
301.554
301.616
301.682
301.553
301.616
301.681
301.578
301.639
301.701
301.575
301.633
301.695
301.589
301.645
301.705
301.586
301.643
301.704
301.564
301.623
301.686
301.566
301.626
301.689
301.561
301.622
301.685
301.569
301.628
301.692
301.582
301.641
301.703
301.57
301.632
301.696
301.558
301.619
301.683
301.558
301.619
301.683
301.559
301.62
301.685
301.58
301.639
301.701
301.573
301.631
301.692
301.564
301.625
301.689
301.566
301.624
301.686
301.557
301.616
301.679
301.589
301.646
301.706
301.573
301.631
301.693
301.537
301.601
301.668
301.542
301.605
301.671
301.544
301.605
301.669
301.551
301.611
301.675
301.544
301.606
301.671
301.606
301.671
301.539
301.603
301.67
301.539
301.603
301.669
301.554
301.614
301.676
301.553
301.613
301.676
301.54
301.601
301.665
301.548
301.609
301.673
301.543
301.606
301.671
301.544
301.606
301.671
300.674
301.298
300.614
300.779
300.632
300.803
300.841
301.044
300.927
300.989
301.022
300.734
300.544
300.584
301.365
301.434
301.334
301.187
301.454
301.258
301.393
301.407
301.165
301.363
301.195
301.327
301.385
301.228
301.217
301.202
301.122
301.079
301.59
301.657
301.526
301.527
301.59
301.525
301.534
301.529
301.592
300.35
300.361
300.386
300.414
300.432
300.345
300.359
300.391
300.426
300.45
300.337
300.351
300.389
300.434
300.467
300.327
300.346
300.395
300.455
300.499
300.314
300.339
300.405
300.485
300.544
300.296
300.33
300.421
300.531
300.611
300.271
300.318
300.444
300.6
300.719
300.235
300.3
300.474
300.708
300.906
300.187
300.268
300.501
300.879
301.204
300.128
300.212
300.492
301.002
301.392
300.35
300.353
300.352
300.348
300.348
300.351
300.35
300.345
300.348
300.347
300.341
300.341
300.344
300.344
300.337
300.341
300.34
300.333
300.332
300.337
300.335
300.327
300.332
300.331
300.321
300.321
300.327
300.325
300.314
300.32
300.319
300.306
300.306
300.313
300.311
300.296
300.305
300.302
300.285
300.284
300.295
300.292
300.27
300.283
300.279
300.254
300.254
300.269
300.265
300.234
300.252
300.247
300.213
300.212
300.232
300.227
300.186
300.209
300.202
300.159
300.158
300.181
300.175
300.127
300.15
300.144
300.348
300.368
300.364
300.349
300.346
300.368
300.364
300.384
300.412
300.407
300.392
300.386
300.418
300.412
300.428
300.454
300.447
300.443
300.436
300.465
300.458
300.459
300.475
300.467
300.481
300.473
300.49
300.481
300.343
300.368
300.363
300.343
300.339
300.368
300.362
300.389
300.425
300.418
300.4
300.393
300.435
300.426
300.446
300.48
300.471
300.468
300.459
300.497
300.487
300.489
300.508
300.499
300.519
300.508
300.53
300.519
300.335
300.368
300.362
300.335
300.33
300.369
300.362
300.397
300.446
300.436
300.412
300.403
300.46
300.448
300.474
300.519
300.507
300.506
300.493
300.545
300.531
300.531
300.557
300.544
300.574
300.559
300.589
300.574
300.325
300.37
300.362
300.325
300.318
300.372
300.362
300.41
300.476
300.463
300.431
300.418
300.497
300.481
300.515
300.577
300.56
300.561
300.543
300.617
300.597
300.594
300.629
300.611
300.658
300.637
300.68
300.658
300.311
300.373
300.362
300.31
300.301
300.375
300.361
300.428
300.522
300.503
300.458
300.439
300.552
300.529
300.578
300.668
300.643
300.648
300.62
300.733
300.702
300.692
300.746
300.719
300.798
300.764
300.833
300.798
300.289
300.375
300.359
300.286
300.274
300.373
300.353
300.451
300.589
300.56
300.49
300.463
300.631
300.595
300.673
300.819
300.778
300.784
300.739
300.935
300.877
300.86
300.954
300.906
301.092
300.992
301.216
301.093
300.254
300.365
300.343
300.243
300.23
300.349
300.326
300.469
300.677
300.632
300.506
300.469
300.721
300.664
300.818
301.115
300.994
300.961
300.838
301.598
301.286
301.071
301.366
301.205
301.415
300.199
300.321
300.297
300.45
300.686
300.675
301.049
301.394
301.491
301.469
301.18
301.281
301.344
301.255
301.313
301.525
301.197
300.976
301.199
301.033
301.167
301.003
301.356
301.582
301.173
301.353
301.308
301.567
301.323
301.276
301.2
301.506
301.337
301.337
301.636
301.308
301.585
301.585
301.47
301.18
301.282
301.344
301.255
301.313
301.525
301.586
301.439
301.39
301.63
301.551
301.29
301.598
301.598
301.353
301.354
301.616
301.67
301.67
301.587
301.439
301.391
301.629
301.567
301.468
301.357
301.303
301.494
301.314
301.192
301.583
301.502
301.262
301.186
300.098
300.097
300.117
300.112
301.209
301.041
301.01
301.404
301.215
300.867
300.949
301.06
301.483
301.522
301.349
301.519
301.199
301.417
301.531
301.51
301.593
301.523
301.503
301.425
301.12
301.172
301.121
301.526
301.046
301.26
301.211
301.343
301.134
301.134
301.172
301.206
301.253
301.253
301.613
301.609
301.614
301.609
301.526
301.524
300.947
301.146
300.87
300.858
300.926
301.016
301.103
301.576
301.571
301.442
301.567
301.566
301.533
301.528
301.525
301.484
301.4
301.582
301.485
301.463
301.378
301.508
301.488
301.466
301.413
301.55
301.55
301.439
301.439
301.587
301.501
301.519
301.629
301.629
301.622
301.51
301.51
301.482
301.574
301.465
301.611
301.456
301.602
301.492
301.483
301.574
301.465
301.611
301.456
301.602
301.492
301.651
301.535
301.609
301.569
301.626
301.618
301.54
301.432
301.535
301.523
301.533
301.623
301.573
301.599