/*--------------------------------*- C++ -*----------------------------------*\
| =========                 |                                                 |
| \\      /  F ield         | OpenFOAM: The Open Source CFD Toolbox           |
|  \\    /   O peration     | Version:  2.3.1                                 |
|   \\  /    A nd           | Web:      www.OpenFOAM.org                      |
|    \\/     M anipulation  |                                                 |
\*---------------------------------------------------------------------------*/
FoamFile
{
    version     2.0;
    format      ascii;
    class       volVectorField;
    location    "3000/fluid";
    object      U_0;
}
// * * * * * * * * * * * * * * * * * * * * * * * * * * * * * * * * * * * * * //

dimensions      [0 1 -1 0 0 0 0];

internalField   nonuniform List<vector> 
25373
(
(0.0377899 0.0511363 -0.961762)
(0.0236395 0.0538213 -0.951116)
(0.0512088 0.0377323 -0.961789)
(0.042647 0.0425738 -0.944835)
(0.0302863 0.0480986 -0.925162)
(0.0538906 0.0235946 -0.95114)
(0.0481546 0.0302352 -0.925161)
(0.0324291 0.0323832 -0.892837)
(0.0599647 0.00779551 -0.960014)
(0.0571386 0.00877701 -0.944335)
(0.0508433 0.0103438 -0.910443)
(0.0345028 0.0118448 -0.871409)
(0.0480238 0.0641688 -0.94399)
(0.0355939 0.074248 -0.919216)
(0.0642617 0.0479555 -0.944024)
(0.0582406 0.0581589 -0.9083)
(0.0391801 0.0639606 -0.876607)
(0.0743373 0.0355232 -0.919329)
(0.0640448 0.0391189 -0.876643)
(0.045067 0.0450099 -0.828467)
(0.0756449 0.00995371 -0.942816)
(0.079487 0.0111388 -0.907223)
(0.0683642 0.0142234 -0.853915)
(0.0478318 0.0158285 -0.797192)
(0.047402 0.0652272 -0.929797)
(0.0335322 0.0699494 -0.921673)
(0.0653519 0.0473279 -0.929826)
(0.0563578 0.0562637 -0.912258)
(0.0414157 0.0649661 -0.879757)
(0.0700926 0.0334482 -0.921746)
(0.0650634 0.0413464 -0.87979)
(0.0484077 0.0483445 -0.826692)
(0.0775863 0.0104213 -0.927925)
(0.0779965 0.0145813 -0.908095)
(0.0713844 0.0185986 -0.851899)
(0.0532285 0.0219401 -0.786514)
(0.0528139 0.0721426 -0.912761)
(0.0382911 0.0791348 -0.902029)
(0.0722724 0.0527285 -0.912787)
(0.0636774 0.063577 -0.8896)
(0.0473463 0.0734204 -0.849897)
(0.0793038 0.0381588 -0.902112)
(0.0735389 0.0472554 -0.849934)
(0.0558845 0.0558129 -0.782707)
(0.086543 0.0118164 -0.911389)
(0.0870282 0.016986 -0.885473)
(0.0807684 0.0221179 -0.814725)
(0.0614603 0.0262991 -0.731121)
(0.0560879 0.0766431 -0.89535)
(0.0413955 0.0858377 -0.882194)
(0.0767581 0.0560078 -0.895376)
(0.068786 0.0686802 -0.86642)
(0.0521004 0.0808554 -0.817846)
(0.0859969 0.0412935 -0.882206)
(0.0809709 0.0519954 -0.817893)
(0.0630173 0.0629397 -0.73472)
(0.0926026 0.0128938 -0.89421)
(0.0943817 0.0188045 -0.861598)
(0.089869 0.0248342 -0.774762)
(0.0704696 0.0304259 -0.670446)
(0.0541135 0.0741158 -0.879346)
(0.0407805 0.0854051 -0.86386)
(0.0742112 0.0540435 -0.879351)
(0.0685258 0.0684294 -0.845108)
(0.0539219 0.0840312 -0.787699)
(0.0855512 0.0406968 -0.863736)
(0.0841325 0.0538362 -0.787701)
(0.0690947 0.0690238 -0.68546)
(0.090499 0.0127393 -0.878293)
(0.0950381 0.0191968 -0.839315)
(0.0960936 0.026645 -0.73506)
(0.0799913 0.0346195 -0.604362)
(0.0437561 0.0597073 -0.867725)
(0.0341911 0.0724979 -0.850859)
(0.0598008 0.0436719 -0.867748)
(0.0592128 0.0591481 -0.831593)
(0.0505687 0.079044 -0.767196)
(0.072614 0.0340745 -0.850692)
(0.079125 0.0505501 -0.767143)
(0.072993 0.0729735 -0.642106)
(0.0738918 0.0103153 -0.86662)
(0.0833986 0.0171621 -0.824713)
(0.0963075 0.0269762 -0.703935)
(0.0899884 0.0389955 -0.536856)
(0.0238764 0.0320789 -0.865759)
(0.0209593 0.045591 -0.850362)
(0.0321944 0.0238202 -0.865769)
(0.0378595 0.0378066 -0.832876)
(0.0397073 0.0625107 -0.764622)
(0.0457094 0.020895 -0.85034)
(0.0626091 0.0396935 -0.76449)
(0.0719653 0.0720022 -0.616068)
(0.0417949 0.00606167 -0.864403)
(0.0555962 0.0120169 -0.825167)
(0.0857924 0.0241185 -0.692311)
(0.0995413 0.0434854 -0.474591)
(-0.015376 -0.0219759 -0.87623)
(-0.00722266 -0.0129002 -0.867061)
(-0.0218878 -0.0154685 -0.876233)
(-0.00590954 -0.00599171 -0.855579)
(0.0117056 0.0183168 -0.79647)
(-0.0128109 -0.00732285 -0.867045)
(0.018419 0.0116662 -0.79644)
(0.0556276 0.0556576 -0.628161)
(-0.0234913 -0.0031548 -0.874486)
(-0.00376235 3.99307e-05 -0.848596)
(0.0473311 0.0142042 -0.719036)
(0.0959451 0.0450335 -0.434239)
(-0.0562939 -0.0775786 -0.899401)
(-0.0386795 -0.0788783 -0.899342)
(-0.0774605 -0.056383 -0.899402)
(-0.059406 -0.0595271 -0.895842)
(-0.0328335 -0.0512361 -0.857352)
(-0.0788065 -0.0387672 -0.899322)
(-0.051114 -0.032943 -0.857264)
(-0.00164953 -0.00163485 -0.701018)
(-0.0925334 -0.0131894 -0.8975)
(-0.0791217 -0.0153922 -0.891332)
(-0.0322647 -0.00695633 -0.789349)
(0.0384568 0.0140324 -0.492063)
(0.0293631 0.0520041 -0.960284)
(0.0315977 0.0582605 -0.948722)
(0.0141115 0.0554168 -0.960078)
(0.0227266 0.0529499 -0.960575)
(0.0164518 0.0529835 -0.961201)
(0.0163528 0.0606156 -0.94784)
(0.0248347 0.0597814 -0.948515)
(0.0186208 0.0584426 -0.947615)
(0.0415303 0.0480416 -0.961512)
(0.0481141 0.0414685 -0.96153)
(0.0444381 0.0443725 -0.96173)
(0.0455354 0.0524938 -0.949345)
(0.0525752 0.0454637 -0.949363)
(0.0485569 0.0484804 -0.948546)
(0.0317718 0.0508751 -0.961186)
(0.0408019 0.046317 -0.959961)
(0.0335454 0.0474243 -0.958787)
(0.0413738 0.056105 -0.948539)
(0.0351482 0.056394 -0.947288)
(0.0447135 0.0512009 -0.944543)
(0.0379114 0.0535585 -0.941001)
(0.0520609 0.0293142 -0.960322)
(0.0583202 0.0315357 -0.948772)
(0.0463908 0.040739 -0.959973)
(0.0509431 0.0317201 -0.961214)
(0.0474965 0.0334865 -0.958811)
(0.0561815 0.0413083 -0.948573)
(0.0512783 0.044642 -0.944565)
(0.0564609 0.0350863 -0.94734)
(0.0536353 0.0378413 -0.941043)
(0.0529943 0.0227063 -0.960598)
(0.0554419 0.0140845 -0.960158)
(0.0530194 0.0164307 -0.961259)
(0.0598302 0.0247968 -0.948575)
(0.0606458 0.0163206 -0.947905)
(0.0584733 0.0185903 -0.947685)
(0.056382 0.0097776 -0.959322)
(0.0620572 0.00280679 -0.960218)
(0.0581849 0.00328587 -0.959315)
(0.0650703 0.00886504 -0.947605)
(0.0622471 0.0107333 -0.945007)
(0.0671372 0.00321758 -0.947496)
(0.0641111 0.00378019 -0.94401)
(0.0381751 0.0679981 -0.942913)
(0.0370324 0.0677048 -0.935014)
(0.0183096 0.0716425 -0.942648)
(0.0298632 0.0721015 -0.941453)
(0.0222561 0.0717935 -0.940768)
(0.0188832 0.0716938 -0.935206)
(0.0294559 0.0712289 -0.934048)
(0.0224255 0.0714514 -0.933406)
(0.0522041 0.0592873 -0.944872)
(0.059381 0.0521296 -0.94489)
(0.0562515 0.0561687 -0.943554)
(0.0517438 0.0596904 -0.937706)
(0.0597948 0.0516663 -0.937724)
(0.056079 0.0559895 -0.936432)
(0.0437553 0.0666148 -0.941122)
(0.0526371 0.0617715 -0.937704)
(0.0477322 0.0656829 -0.931112)
(0.0474293 0.0643878 -0.937709)
(0.0423538 0.0664472 -0.934655)
(0.0526423 0.0609365 -0.93185)
(0.0478842 0.0658688 -0.923784)
(0.0680702 0.038118 -0.94297)
(0.0678196 0.0369592 -0.935087)
(0.0618565 0.0525624 -0.937725)
(0.0666876 0.0436842 -0.941183)
(0.0657658 0.04765 -0.931165)
(0.0644995 0.0473584 -0.937743)
(0.061033 0.052562 -0.931873)
(0.0665552 0.0422823 -0.934718)
(0.0659685 0.0478055 -0.923834)
(0.0721734 0.0298213 -0.941514)
(0.0717351 0.018265 -0.942716)
(0.0718751 0.0222102 -0.940846)
(0.0713458 0.0293831 -0.93413)
(0.0717961 0.0188176 -0.935283)
(0.0715516 0.022353 -0.933493)
(0.0760045 0.0129277 -0.937708)
(0.0773876 0.00360163 -0.942838)
(0.0781174 0.00418475 -0.936571)
(0.0756404 0.0104061 -0.935568)
(0.0754122 0.0130228 -0.931084)
(0.0777105 0.00377594 -0.935636)
(0.077793 0.0043311 -0.929793)
(0.0362993 0.0669837 -0.928922)
(0.0389567 0.0719708 -0.920817)
(0.0186968 0.073437 -0.927912)
(0.0294829 0.0684181 -0.92846)
(0.0223221 0.0716337 -0.926516)
(0.0199848 0.0783741 -0.919471)
(0.0312573 0.0755687 -0.919797)
(0.0237907 0.0772468 -0.917904)
(0.0517883 0.0611736 -0.930359)
(0.0612847 0.0517085 -0.930373)
(0.0565991 0.0565073 -0.929265)
(0.0554718 0.0643856 -0.92172)
(0.0645009 0.0553851 -0.921732)
(0.0602022 0.060104 -0.920584)
(0.040581 0.0663889 -0.927783)
(0.0538011 0.0589523 -0.924098)
(0.0470682 0.0646639 -0.915067)
(0.0504434 0.0689328 -0.920628)
(0.0442253 0.0705921 -0.91854)
(0.0563733 0.0647593 -0.913897)
(0.0493182 0.0693042 -0.905096)
(0.0671265 0.0362176 -0.928985)
(0.0721161 0.0388744 -0.920886)
(0.0590523 0.0537194 -0.924118)
(0.0665222 0.0405096 -0.927835)
(0.0647741 0.0469968 -0.915112)
(0.0690596 0.0503617 -0.920656)
(0.0648647 0.056285 -0.913918)
(0.0707286 0.0441415 -0.918595)
(0.069425 0.0492339 -0.905147)
(0.0685709 0.0293842 -0.928531)
(0.0735615 0.0186064 -0.927995)
(0.071766 0.0222106 -0.926601)
(0.0757243 0.0311613 -0.919878)
(0.0785061 0.0199088 -0.919577)
(0.0773886 0.0236885 -0.918012)
(0.0748391 0.0131498 -0.923531)
(0.0803639 0.00381548 -0.927902)
(0.0777631 0.0045924 -0.921853)
(0.0825144 0.0111801 -0.919243)
(0.0814751 0.0139932 -0.913951)
(0.0850931 0.00399166 -0.919176)
(0.084118 0.00474939 -0.912226)
(0.0408047 0.0754743 -0.912851)
(0.042547 0.0791327 -0.904086)
(0.0210007 0.0823162 -0.911636)
(0.03283 0.0792959 -0.911978)
(0.0250583 0.081153 -0.909841)
(0.0220352 0.0860904 -0.902907)
(0.0343275 0.0835475 -0.903086)
(0.0263772 0.0852853 -0.900777)
(0.0580542 0.0674265 -0.913712)
(0.0675434 0.0579647 -0.913723)
(0.0630875 0.0629865 -0.912274)
(0.0605629 0.0699507 -0.904821)
(0.0700636 0.0604762 -0.904833)
(0.0657871 0.0656859 -0.903127)
(0.0463275 0.0740967 -0.910323)
(0.0591546 0.0679225 -0.905029)
(0.0517825 0.0729113 -0.89455)
(0.0549619 0.0750518 -0.903702)
(0.0485236 0.0776387 -0.900964)
(0.0615163 0.071413 -0.894793)
(0.0540522 0.0767704 -0.883127)
(0.07563 0.0407189 -0.912917)
(0.0792862 0.0424679 -0.904139)
(0.0680313 0.0590608 -0.905052)
(0.0742418 0.0462343 -0.910374)
(0.073039 0.0516879 -0.8946)
(0.0751781 0.0548776 -0.903732)
(0.0715229 0.0614215 -0.89483)
(0.0777797 0.0484285 -0.901021)
(0.0769009 0.0539583 -0.8832)
(0.0794696 0.032718 -0.912048)
(0.0824789 0.0209269 -0.911687)
(0.0813185 0.0249496 -0.909898)
(0.0837358 0.0342325 -0.903123)
(0.0863118 0.0220144 -0.9029)
(0.0855231 0.0263416 -0.900728)
(0.08562 0.0148015 -0.905494)
(0.0891429 0.00421979 -0.911215)
(0.0883141 0.00504323 -0.903384)
(0.0903236 0.0124812 -0.90251)
(0.0901478 0.015716 -0.895589)
(0.0927438 0.00445062 -0.90226)
(0.0927596 0.00529688 -0.893183)
(0.0434427 0.0811415 -0.895707)
(0.0433739 0.0814388 -0.887454)
(0.0226045 0.0884849 -0.894671)
(0.0351487 0.0858132 -0.894651)
(0.0272133 0.0879251 -0.892164)
(0.0226744 0.0891164 -0.886466)
(0.0352075 0.0863382 -0.886276)
(0.02753 0.0889454 -0.883552)
(0.0618179 0.07135 -0.896491)
(0.071455 0.0617353 -0.896504)
(0.067337 0.0672367 -0.894474)
(0.0617016 0.071155 -0.888199)
(0.0712506 0.0616295 -0.888212)
(0.0674846 0.0673978 -0.885861)
(0.0497178 0.0797932 -0.892217)
(0.0630065 0.0733645 -0.885302)
(0.0555406 0.0792408 -0.872213)
(0.0559639 0.076568 -0.886927)
(0.0499092 0.0803595 -0.883465)
(0.0632182 0.0739203 -0.875745)
(0.0559957 0.0803344 -0.86144)
(0.0812855 0.0433736 -0.895756)
(0.0815847 0.0433028 -0.8875)
(0.0734713 0.0629038 -0.885334)
(0.0799222 0.0496359 -0.892264)
(0.079366 0.055441 -0.872279)
(0.0766792 0.055895 -0.88695)
(0.0740183 0.063132 -0.875762)
(0.0804945 0.0498379 -0.883498)
(0.0804566 0.0559102 -0.861483)
(0.0859933 0.0350635 -0.894665)
(0.0886897 0.0225721 -0.894639)
(0.0881635 0.0271937 -0.892057)
(0.0865037 0.0351233 -0.886266)
(0.0892774 0.0226213 -0.886411)
(0.0891626 0.0275198 -0.883396)
(0.0929523 0.0163612 -0.886299)
(0.0948218 0.00460722 -0.893867)
(0.0954803 0.00551437 -0.883543)
(0.0929665 0.0130253 -0.885873)
(0.094063 0.0167298 -0.876926)
(0.0948616 0.00465587 -0.885426)
(0.0964246 0.00563396 -0.873839)
(0.0419197 0.0791879 -0.879969)
(0.0387101 0.073659 -0.873732)
(0.021988 0.0871446 -0.879007)
(0.0341456 0.0841364 -0.878649)
(0.027038 0.0874491 -0.875702)
(0.0202774 0.0816934 -0.872761)
(0.0316364 0.0784704 -0.872261)
(0.0254711 0.0825779 -0.869096)
(0.0596055 0.0687648 -0.880688)
(0.068844 0.0595331 -0.880688)
(0.0656113 0.0655341 -0.87807)
(0.0550613 0.0635704 -0.874449)
(0.0636207 0.0550077 -0.874444)
(0.0611231 0.061075 -0.871575)
(0.0486307 0.078562 -0.875564)
(0.06165 0.0722574 -0.867182)
(0.0549759 0.0792109 -0.851813)
(0.0500716 0.0685993 -0.873023)
(0.0454612 0.0736257 -0.868927)
(0.0576334 0.0677583 -0.860166)
(0.0519489 0.0752085 -0.84406)
(0.0793338 0.0418279 -0.879998)
(0.0738157 0.0385541 -0.873756)
(0.0723445 0.061563 -0.867183)
(0.0787061 0.0485585 -0.875574)
(0.0793244 0.0548992 -0.851819)
(0.0686847 0.050012 -0.87303)
(0.0678209 0.0575748 -0.860165)
(0.0737962 0.0453671 -0.868938)
(0.0753229 0.0518998 -0.844082)
(0.0842782 0.0340524 -0.878615)
(0.0872211 0.0218924 -0.878955)
(0.0876115 0.0270096 -0.875521)
(0.0785738 0.0315032 -0.872231)
(0.0817068 0.0201705 -0.872749)
(0.0827063 0.0254417 -0.868942)
(0.0924383 0.0166555 -0.868389)
(0.0919327 0.00455931 -0.87777)
(0.0945188 0.00561286 -0.865035)
(0.0843738 0.0118746 -0.871841)
(0.0872556 0.0159623 -0.861181)
(0.0851998 0.00425435 -0.871246)
(0.0889435 0.00537115 -0.857605)
(0.0337262 0.0644794 -0.86851)
(0.0262736 0.0511804 -0.86667)
(0.0173006 0.0721608 -0.867639)
(0.027678 0.0688529 -0.866928)
(0.0227601 0.0738994 -0.86366)
(0.0133184 0.0582939 -0.865681)
(0.0220271 0.0550869 -0.865023)
(0.0189071 0.0610767 -0.861826)
(0.0478875 0.0553032 -0.869243)
(0.0553624 0.0478686 -0.869255)
(0.0539718 0.053949 -0.866217)
(0.0374179 0.0433831 -0.867422)
(0.0434694 0.0374053 -0.867442)
(0.0435512 0.0435067 -0.86465)
(0.0404173 0.0654724 -0.863417)
(0.0513517 0.0605374 -0.854686)
(0.0470703 0.0683783 -0.838332)
(0.0345266 0.0468707 -0.865981)
(0.0327476 0.0531871 -0.861963)
(0.0422207 0.0499328 -0.853841)
(0.0402454 0.0589825 -0.837356)
(0.0645966 0.0335686 -0.868522)
(0.0512717 0.0262234 -0.866666)
(0.0605721 0.0512646 -0.854733)
(0.0656207 0.0402889 -0.863451)
(0.0684975 0.0470078 -0.838458)
(0.047009 0.0344982 -0.866004)
(0.0500566 0.0421824 -0.853869)
(0.0533665 0.032714 -0.861966)
(0.0591102 0.0402068 -0.837411)
(0.0689251 0.0275449 -0.866883)
(0.0721505 0.017248 -0.867654)
(0.0740173 0.0227512 -0.863571)
(0.055066 0.0219098 -0.864989)
(0.0583212 0.0133188 -0.865675)
(0.061142 0.0188423 -0.861807)
(0.078235 0.0146334 -0.855587)
(0.0740036 0.00371751 -0.865993)
(0.0795543 0.00493187 -0.851891)
(0.0590062 0.00826263 -0.864736)
(0.0649665 0.0127162 -0.854399)
(0.0583364 0.0029816 -0.864133)
(0.0658392 0.00428049 -0.850766)
(0.018364 0.0355803 -0.866366)
(0.00272264 0.00680182 -0.868928)
(0.00909896 0.0419608 -0.865393)
(0.0156556 0.0388505 -0.864743)
(0.0139445 0.0452309 -0.861725)
(0.000862787 0.0108498 -0.86813)
(0.00319566 0.00843005 -0.867426)
(0.00470684 0.0150847 -0.864887)
(0.0256039 0.029653 -0.867137)
(0.0297351 0.0255459 -0.86715)
(0.0307857 0.0307186 -0.864594)
(0.00356343 0.00449307 -0.869719)
(0.00457048 0.00347754 -0.86972)
(0.00767559 0.00758943 -0.867457)
(0.0235717 0.0383652 -0.861995)
(0.0303788 0.0361673 -0.854679)
(0.0292609 0.0430699 -0.839042)
(0.00430022 0.00522488 -0.868357)
(0.00672381 0.0111242 -0.864996)
(0.00955064 0.0118341 -0.85896)
(0.0124012 0.0188884 -0.845494)
(0.0356913 0.0183124 -0.866366)
(0.00688199 0.00264001 -0.868923)
(0.0362714 0.030333 -0.854653)
(0.0385157 0.023521 -0.861986)
(0.0432104 0.0292158 -0.838975)
(0.0053112 0.00421048 -0.868358)
(0.0119304 0.0094586 -0.858965)
(0.0112128 0.00662422 -0.864996)
(0.0190045 0.0123112 -0.845494)
(0.0389118 0.0155827 -0.86476)
(0.0420378 0.00903801 -0.865394)
(0.0453233 0.0138533 -0.861748)
(0.00850338 0.00311244 -0.86742)
(0.0109755 0.00079232 -0.868106)
(0.015185 0.00461976 -0.864873)
(0.0484696 0.00971998 -0.854861)
(0.0405198 0.00219385 -0.86387)
(0.0490215 0.00332703 -0.851397)
(0.00956699 0.00142051 -0.866986)
(0.0175157 0.00445124 -0.858769)
(0.00734579 0.000565363 -0.866514)
(0.0174273 0.00156318 -0.855735)
(-0.0127152 -0.0222949 -0.876294)
(-0.0291514 -0.0529108 -0.88607)
(-0.00709517 -0.0206836 -0.875269)
(-0.00935699 -0.0224965 -0.875179)
(-0.00491609 -0.0161426 -0.873293)
(-0.0157007 -0.0545307 -0.884983)
(-0.0227604 -0.0550647 -0.885452)
(-0.0154616 -0.0499829 -0.884331)
(-0.0180937 -0.0205586 -0.876969)
(-0.020479 -0.0181787 -0.876972)
(-0.0157678 -0.0158612 -0.875691)
(-0.0409955 -0.0469613 -0.886524)
(-0.0468675 -0.0410972 -0.886534)
(-0.0408217 -0.0409376 -0.886201)
(-0.0105957 -0.0170713 -0.873978)
(-0.0121091 -0.0135454 -0.870217)
(-0.00626046 -0.00806013 -0.859701)
(-0.0361188 -0.0503718 -0.886306)
(-0.0292489 -0.0472175 -0.885315)
(-0.0355977 -0.0411833 -0.883947)
(-0.0272955 -0.0384741 -0.877098)
(-0.0221997 -0.0128079 -0.876287)
(-0.052825 -0.0292565 -0.886055)
(-0.0134523 -0.012212 -0.87022)
(-0.0169724 -0.0107017 -0.873975)
(-0.00795751 -0.00636513 -0.859703)
(-0.0502786 -0.0362274 -0.886314)
(-0.0410749 -0.0357328 -0.883945)
(-0.0471293 -0.0293717 -0.885313)
(-0.0383854 -0.0274349 -0.877099)
(-0.0224027 -0.00943993 -0.875167)
(-0.0205616 -0.00718432 -0.875249)
(-0.0160381 -0.00500438 -0.873273)
(-0.0549823 -0.02285 -0.885433)
(-0.0544298 -0.0157947 -0.884968)
(-0.0499087 -0.0155544 -0.884317)
(-0.0150129 -0.00132216 -0.869235)
(-0.0263211 -0.00105069 -0.87408)
(-0.0156823 -0.000375487 -0.867065)
(-0.0584597 -0.00819188 -0.884469)
(-0.0506206 -0.00783327 -0.882498)
(-0.0617102 -0.00287202 -0.884286)
(-0.0520143 -0.00258242 -0.88135)
(-0.0450237 -0.0824595 -0.898853)
(-0.0241292 -0.0877135 -0.897685)
(-0.0358509 -0.0866233 -0.898799)
(-0.0260484 -0.0837484 -0.898388)
(-0.0630268 -0.072375 -0.89912)
(-0.0722551 -0.0631265 -0.899125)
(-0.0653558 -0.0654855 -0.89978)
(-0.0476064 -0.076974 -0.899657)
(-0.0590287 -0.068737 -0.900521)
(-0.0489342 -0.0698235 -0.897358)
(-0.0823822 -0.0451235 -0.898839)
(-0.0686062 -0.0591446 -0.900506)
(-0.0768885 -0.047709 -0.899649)
(-0.0697258 -0.0490535 -0.897327)
(-0.0865489 -0.035937 -0.898787)
(-0.0876154 -0.0242165 -0.897686)
(-0.0836755 -0.0261305 -0.898387)
(-0.0863915 -0.0145444 -0.898774)
(-0.0959409 -0.00470182 -0.89746)
(-0.0885536 -0.00487593 -0.898491)
(0.024895 0.0758866 -0.91479)
(0.040004 0.0669668 -0.904572)
(0.0296725 0.0722618 -0.893778)
(0.0364972 0.0751778 -0.90937)
(0.0270672 0.0794613 -0.902348)
(0.0408755 0.0729887 -0.891914)
(0.0307666 0.0769852 -0.880896)
(0.0491026 0.0633567 -0.897402)
(0.0634576 0.049028 -0.897427)
(0.0557924 0.0557142 -0.87671)
(0.0605875 0.0604916 -0.897913)
(0.0535475 0.0655569 -0.882862)
(0.0656606 0.0534637 -0.882883)
(0.0587242 0.0586401 -0.862023)
(0.0317229 0.0703044 -0.86513)
(0.0474056 0.0576249 -0.854173)
(0.0361278 0.0627129 -0.834896)
(0.0448385 0.0694599 -0.861273)
(0.0341799 0.0735641 -0.845662)
(0.0492816 0.0625506 -0.834686)
(0.0376905 0.0664048 -0.815322)
(0.0670831 0.0399413 -0.904635)
(0.0760304 0.0247823 -0.914897)
(0.0723901 0.0295767 -0.893886)
(0.0753312 0.0363946 -0.909454)
(0.0731215 0.0407924 -0.892003)
(0.079609 0.0269356 -0.902491)
(0.0771263 0.0306463 -0.88107)
(0.0577022 0.0473381 -0.854185)
(0.0703958 0.0316475 -0.865188)
(0.0627792 0.036072 -0.834926)
(0.0695696 0.0447605 -0.861317)
(0.062638 0.0492113 -0.834708)
(0.0736779 0.0340883 -0.845768)
(0.0664899 0.0376298 -0.815376)
(0.037486 0.0528988 -0.804779)
(0.0529393 0.0374309 -0.804795)
(0.0406389 0.0406194 -0.77877)
(0.0527306 0.0526635 -0.800374)
(0.0404562 0.0558565 -0.777218)
(0.0559112 0.0404116 -0.777233)
(0.0427765 0.0427653 -0.751351)
(0.0739941 0.0182143 -0.883949)
(0.0807381 0.00555352 -0.904635)
(0.0763805 0.00661417 -0.878843)
(0.082547 0.0160476 -0.894216)
(0.079945 0.0187485 -0.869424)
(0.0847258 0.00568955 -0.890478)
(0.0818463 0.00671403 -0.864031)
(0.0637748 0.0218543 -0.819422)
(0.0735511 0.00764664 -0.845575)
(0.0655593 0.00826777 -0.81128)
(0.0762333 0.0208457 -0.829719)
(0.068802 0.023083 -0.79629)
(0.0778095 0.00762386 -0.822789)
(0.0701399 0.00833717 -0.788128)
(0.0413092 0.0243442 -0.759139)
(0.0549186 0.00886107 -0.777669)
(0.0423746 0.00930608 -0.749038)
(0.0577876 0.0246842 -0.754678)
(0.0443072 0.0261992 -0.72691)
(0.0588645 0.00900563 -0.745474)
(0.0451177 0.00945084 -0.716898)
(0.0285719 0.0836724 -0.893669)
(0.042925 0.0771157 -0.880558)
(0.0324961 0.081317 -0.866851)
(0.0402944 0.0832226 -0.891554)
(0.0300251 0.087631 -0.882334)
(0.0448953 0.0815718 -0.867412)
(0.033976 0.0858417 -0.852288)
(0.0565089 0.0690284 -0.871208)
(0.0691374 0.0564203 -0.871229)
(0.0620634 0.0619753 -0.845069)
(0.0667932 0.0666958 -0.877344)
(0.0595687 0.0723804 -0.856792)
(0.0724872 0.0594881 -0.85682)
(0.0653585 0.065279 -0.827668)
(0.0361765 0.0778539 -0.830792)
(0.0521615 0.0662353 -0.817056)
(0.0400037 0.0703644 -0.792794)
(0.0500513 0.0775802 -0.833119)
(0.0381312 0.0821986 -0.811922)
(0.0551181 0.0703074 -0.796465)
(0.0421949 0.0746848 -0.769563)
(0.0772596 0.0428109 -0.88064)
(0.0838423 0.0284121 -0.893774)
(0.0814705 0.032333 -0.866992)
(0.0833959 0.0401715 -0.891621)
(0.0817165 0.0447864 -0.867497)
(0.087824 0.0299221 -0.882288)
(0.0859949 0.033853 -0.852328)
(0.066329 0.0520871 -0.817067)
(0.077983 0.0360586 -0.830886)
(0.0704598 0.0399344 -0.792828)
(0.0776957 0.0499764 -0.833166)
(0.0703933 0.055059 -0.796486)
(0.0823252 0.0380364 -0.812012)
(0.0747763 0.0421385 -0.769633)
(0.0429764 0.0593178 -0.753961)
(0.0593747 0.0429275 -0.753969)
(0.0456152 0.0456088 -0.721547)
(0.0596086 0.0595534 -0.758224)
(0.0457458 0.0633813 -0.726138)
(0.063423 0.0457209 -0.726148)
(0.0486661 0.0486871 -0.690029)
(0.0845363 0.0198025 -0.854848)
(0.0892448 0.00599737 -0.880882)
(0.0864914 0.00708779 -0.848103)
(0.0912839 0.0180687 -0.872948)
(0.0894576 0.0209517 -0.838806)
(0.0934139 0.0062422 -0.867793)
(0.091437 0.00730405 -0.831309)
(0.072975 0.0245084 -0.773171)
(0.0824719 0.00802592 -0.806124)
(0.0744342 0.00886802 -0.762862)
(0.0855932 0.0236431 -0.794193)
(0.0778046 0.026268 -0.747853)
(0.0873999 0.0082985 -0.784617)
(0.0794126 0.00920513 -0.736417)
(0.0472581 0.0279208 -0.696487)
(0.0626386 0.00955689 -0.719537)
(0.0481884 0.0101207 -0.683896)
(0.0659931 0.0284978 -0.700708)
(0.0506334 0.030326 -0.661899)
(0.0672981 0.00998375 -0.687699)
(0.0516507 0.010601 -0.647751)
(0.0309582 0.0905607 -0.872016)
(0.046329 0.0845649 -0.855123)
(0.0352019 0.0892877 -0.838219)
(0.041713 0.086857 -0.872543)
(0.0313339 0.0919268 -0.861444)
(0.0470003 0.0862294 -0.842844)
(0.0359171 0.0915121 -0.824359)
(0.0616839 0.0749629 -0.843432)
(0.0750759 0.0615875 -0.843462)
(0.0681198 0.068025 -0.810643)
(0.0695838 0.0694898 -0.855108)
(0.0628867 0.0764851 -0.829916)
(0.0765906 0.062799 -0.829949)
(0.0701402 0.0700566 -0.793752)
(0.0398476 0.0860432 -0.794108)
(0.0578115 0.0737991 -0.776535)
(0.0444555 0.0787908 -0.746111)
(0.0535111 0.0832261 -0.801967)
(0.0411661 0.0891357 -0.775839)
(0.0600695 0.0768148 -0.756124)
(0.0465045 0.0826443 -0.72228)
(0.0846973 0.0462165 -0.855178)
(0.0907405 0.0308812 -0.871821)
(0.08942 0.0350844 -0.838126)
(0.0870154 0.0416267 -0.872479)
(0.0863632 0.0469079 -0.842841)
(0.0921031 0.0312803 -0.861104)
(0.0916599 0.0358384 -0.82409)
(0.0738979 0.0577205 -0.776558)
(0.0861601 0.0397032 -0.794154)
(0.0789012 0.0443358 -0.746198)
(0.083336 0.0534188 -0.802002)
(0.0768947 0.06 -0.756144)
(0.0892543 0.0410517 -0.775738)
(0.0827317 0.0464109 -0.722308)
(0.0485724 0.0673574 -0.698345)
(0.0674301 0.0485133 -0.698359)
(0.0519862 0.0519751 -0.657311)
(0.0662626 0.0662075 -0.709698)
(0.0514329 0.0714397 -0.668886)
(0.0714983 0.0513988 -0.668901)
(0.0555281 0.0555192 -0.622628)
(0.0932278 0.0218557 -0.823281)
(0.096527 0.0064773 -0.855786)
(0.0953276 0.00758496 -0.814831)
(0.0959338 0.0192654 -0.849858)
(0.0959191 0.0225319 -0.807734)
(0.0980939 0.00662026 -0.843441)
(0.0981985 0.00778709 -0.79836)
(0.0824167 0.027812 -0.722338)
(0.0918799 0.0086634 -0.763993)
(0.0842618 0.00969208 -0.709408)
(0.0935585 0.0259026 -0.754277)
(0.086922 0.0293839 -0.695755)
(0.0958513 0.00898771 -0.742253)
(0.0891075 0.0102041 -0.681211)
(0.0543236 0.0325869 -0.626335)
(0.0720089 0.0105768 -0.655695)
(0.0555257 0.0113078 -0.610219)
(0.0751818 0.0325424 -0.63762)
(0.0583616 0.0351301 -0.587723)
(0.0770406 0.0112729 -0.620875)
(0.0597638 0.0121359 -0.569362)
(0.0307978 0.0909271 -0.851888)
(0.0465433 0.0857213 -0.831887)
(0.0358884 0.0917842 -0.811775)
(0.0382847 0.0806203 -0.856551)
(0.0291575 0.0866213 -0.843919)
(0.0446043 0.082406 -0.822972)
(0.0349019 0.0894299 -0.801339)
(0.0626561 0.0762962 -0.817924)
(0.0764039 0.0625664 -0.817948)
(0.0709922 0.0709006 -0.778395)
(0.0650384 0.0649682 -0.837133)
(0.0605424 0.0738882 -0.808335)
(0.073976 0.060495 -0.808319)
(0.0702533 0.0701796 -0.765611)
(0.0419007 0.0909466 -0.758991)
(0.0616484 0.0788809 -0.737035)
(0.0482488 0.0858671 -0.699327)
(0.0530091 0.0828242 -0.775787)
(0.0418498 0.0910211 -0.744289)
(0.0622641 0.0797593 -0.720155)
(0.0495173 0.0882873 -0.678053)
(0.0858326 0.0464693 -0.831816)
(0.0910631 0.0307414 -0.851478)
(0.0919086 0.0358401 -0.811388)
(0.0807526 0.0381731 -0.856409)
(0.0825198 0.0445504 -0.822898)
(0.086724 0.0291056 -0.843529)
(0.0895618 0.0348813 -0.800955)
(0.078958 0.061571 -0.737072)
(0.0910493 0.0418131 -0.758757)
(0.0859422 0.0481345 -0.699335)
(0.0828925 0.0529686 -0.775726)
(0.0798106 0.0622005 -0.720127)
(0.0910976 0.0418128 -0.743947)
(0.0883399 0.0494205 -0.677915)
(0.0542508 0.075381 -0.639463)
(0.0754634 0.0541657 -0.639511)
(0.059266 0.0592101 -0.586951)
(0.0714076 0.0713319 -0.662483)
(0.0569771 0.0792388 -0.6104)
(0.0793232 0.0568576 -0.610418)
(0.0632408 0.063166 -0.55038)
(0.0966876 0.0227836 -0.793551)
(0.0972275 0.00661508 -0.83238)
(0.0992324 0.00788552 -0.783269)
(0.0909214 0.0185319 -0.830663)
(0.0949924 0.022532 -0.781726)
(0.0931864 0.00639634 -0.823286)
(0.0979192 0.00781996 -0.770518)
(0.0909919 0.0307643 -0.669745)
(0.0987752 0.00925256 -0.721686)
(0.0936398 0.0107122 -0.653379)
(0.0971287 0.027026 -0.717694)
(0.094546 0.0320077 -0.644629)
(0.100363 0.00941172 -0.702794)
(0.0978186 0.0111945 -0.626157)
(0.0627752 0.0377974 -0.547425)
(0.0822984 0.0120292 -0.585356)
(0.064503 0.0130769 -0.526398)
(0.0849637 0.0367787 -0.570474)
(0.0676362 0.0407643 -0.505143)
(0.0878648 0.01284 -0.548772)
(0.0698147 0.0141777 -0.480894)
(0.0263318 0.0789325 -0.838038)
(0.0411572 0.076121 -0.81676)
(0.0328142 0.08414 -0.794091)
(0.0283156 0.0606645 -0.849693)
(0.0222836 0.0677381 -0.836893)
(0.0361314 0.0672539 -0.815191)
(0.029641 0.0762065 -0.791714)
(0.0564366 0.0689536 -0.801829)
(0.0690341 0.0564056 -0.801813)
(0.0675524 0.0675239 -0.756312)
(0.0509626 0.050869 -0.83069)
(0.0503833 0.0616957 -0.799632)
(0.0618122 0.0503487 -0.799591)
(0.0627513 0.0626854 -0.752099)
(0.040901 0.0889143 -0.732947)
(0.0617293 0.0790971 -0.706627)
(0.0501788 0.0895672 -0.659553)
(0.0464609 0.0726692 -0.76354)
(0.038651 0.0838994 -0.726775)
(0.0595106 0.0762191 -0.698232)
(0.0499614 0.0891686 -0.64545)
(0.0762472 0.0411083 -0.816717)
(0.0790047 0.0262678 -0.837742)
(0.0842635 0.0327679 -0.793814)
(0.0607886 0.0282664 -0.849557)
(0.0673493 0.0361042 -0.815103)
(0.0678726 0.022202 -0.836716)
(0.0763127 0.0295707 -0.791496)
(0.0791263 0.0617111 -0.706604)
(0.0889996 0.0408864 -0.732711)
(0.089627 0.0501439 -0.65948)
(0.0727491 0.0464505 -0.763459)
(0.0762707 0.0594818 -0.698217)
(0.0839792 0.0386125 -0.726666)
(0.0892233 0.0499616 -0.645424)
(0.0595364 0.0828556 -0.582588)
(0.0828962 0.0594493 -0.582663)
(0.0674652 0.0673754 -0.513286)
(0.073592 0.073543 -0.625842)
(0.0618818 0.0861615 -0.557708)
(0.0862139 0.0618272 -0.557775)
(0.0720308 0.0719385 -0.476877)
(0.0902442 0.0215747 -0.773474)
(0.0857085 0.0059632 -0.81705)
(0.0936752 0.00754973 -0.761385)
(0.0730748 0.0151145 -0.82339)
(0.0824803 0.0198298 -0.770176)
(0.0754108 0.00530019 -0.815506)
(0.0862217 0.00702168 -0.757426)
(0.097318 0.0329954 -0.621797)
(0.100261 0.00945603 -0.687395)
(0.101372 0.0115945 -0.600731)
(0.0927439 0.0260792 -0.695309)
(0.098957 0.0337692 -0.602974)
(0.0976357 0.00923271 -0.676781)
(0.104089 0.0119979 -0.578823)
(0.0730585 0.0440371 -0.460988)
(0.0936952 0.0136689 -0.511928)
(0.0758637 0.0154022 -0.432889)
(0.0951414 0.0412404 -0.504549)
(0.079182 0.0477234 -0.415724)
(0.0998173 0.0145485 -0.475459)
(0.082796 0.0167955 -0.382753)
(0.0172293 0.0525321 -0.837949)
(0.0279175 0.0518207 -0.81716)
(0.0241978 0.0619185 -0.793255)
(0.00715722 0.0170589 -0.855198)
(0.00718549 0.0237069 -0.844286)
(0.0147389 0.0275883 -0.826017)
(0.0149143 0.0384528 -0.803264)
(0.0400959 0.0490429 -0.802004)
(0.0491392 0.0400956 -0.801905)
(0.0543576 0.0543428 -0.752964)
(0.0170829 0.0170004 -0.840294)
(0.0233329 0.0286649 -0.812494)
(0.0287807 0.0232834 -0.812464)
(0.0389894 0.0389394 -0.764167)
(0.0344795 0.0755788 -0.725834)
(0.054826 0.070441 -0.695781)
(0.0481321 0.0858082 -0.63797)
(0.0273992 0.0429009 -0.775682)
(0.0268562 0.0581257 -0.735018)
(0.0453383 0.0578215 -0.703174)
(0.043867 0.0777295 -0.638825)
(0.0519563 0.0278614 -0.817085)
(0.0526397 0.0171282 -0.837916)
(0.0620388 0.0241134 -0.793181)
(0.017125 0.00704497 -0.855198)
(0.027691 0.0146485 -0.826013)
(0.0237729 0.00708065 -0.844284)
(0.0385422 0.0148168 -0.803262)
(0.0704694 0.0548557 -0.695651)
(0.0756509 0.034407 -0.725778)
(0.0858527 0.0481298 -0.637897)
(0.0430027 0.027347 -0.775598)
(0.0579007 0.0453753 -0.703)
(0.0581869 0.0267519 -0.734983)
(0.0777997 0.0438593 -0.638679)
(0.0634389 0.0880968 -0.536939)
(0.0880948 0.0634688 -0.536862)
(0.0763128 0.0763389 -0.441296)
(0.0667785 0.0667839 -0.614727)
(0.062695 0.0868197 -0.524086)
(0.0868622 0.0627336 -0.523849)
(0.0802127 0.0803565 -0.410305)
(0.0704797 0.0172978 -0.77124)
(0.0576741 0.0042353 -0.817392)
(0.0747802 0.00614307 -0.758073)
(0.0277832 0.00633851 -0.832915)
(0.0468704 0.0116842 -0.781933)
(0.0300152 0.00236747 -0.825771)
(0.0517207 0.00435186 -0.768513)
(0.0980744 0.0335662 -0.589146)
(0.0916412 0.00873508 -0.672269)
(0.104598 0.0121379 -0.560755)
(0.0702714 0.0200219 -0.698911)
(0.0925922 0.0322182 -0.584291)
(0.0774057 0.00744376 -0.676749)
(0.100109 0.011892 -0.552219)
(0.0855748 0.0516486 -0.368475)
(0.105626 0.0154667 -0.440417)
(0.090195 0.0184413 -0.329331)
(0.101863 0.0446986 -0.449272)
(0.0923164 0.0557343 -0.324321)
(0.109761 0.0159902 -0.408724)
(0.0967876 0.0201367 -0.277038)
(-0.00337907 -0.0073111 -0.858267)
(-0.000394835 -0.00046099 -0.843071)
(0.00386593 0.00978711 -0.822359)
(-0.022939 -0.0457236 -0.881737)