  # Source : cellZone fluid
# Cells  : 25373
# Time	sum(V)	volAverage(T)
4.021803e+01	5.751203e+01	3.393308e+02
4.073781e+01	5.751203e+01	3.393068e+02
4.125759e+01	5.751203e+01	3.392721e+02
4.177737e+01	5.751203e+01	3.392294e+02
4.229715e+01	5.751203e+01	3.391804e+02
4.281693e+01	5.751203e+01	3.391258e+02
4.333671e+01	5.751203e+01	3.390663e+02
4.385648e+01	5.751203e+01	3.390022e+02
4.437626e+01	5.751203e+01	3.389335e+02
4.489604e+01	5.751203e+01	3.388605e+02
4.541451e+01	5.751203e+01	3.387837e+02
4.593264e+01	5.751203e+01	3.387033e+02
4.645078e+01	5.751203e+01	3.386199e+02
4.696891e+01	5.751203e+01	3.385343e+02
4.748705e+01	5.751203e+01	3.384473e+02
4.800518e+01	5.751203e+01	3.383596e+02
4.852332e+01	5.751203e+01	3.382720e+02
4.904145e+01	5.751203e+01	3.381852e+02
4.955959e+01	5.751203e+01	3.380995e+02
5.007772e+01	5.751203e+01	3.380156e+02
5.059585e+01	5.751203e+01	3.379336e+02
5.111399e+01	5.751203e+01	3.378537e+02
5.163212e+01	5.751203e+01	3.377761e+02
5.215026e+01	5.751203e+01	3.377007e+02
5.266839e+01	5.751203e+01	3.376275e+02
5.318653e+01	5.751203e+01	3.375565e+02
5.370466e+01	5.751203e+01	3.374876e+02
5.422280e+01	5.751203e+01	3.374205e+02
5.474093e+01	5.751203e+01	3.373553e+02
5.525907e+01	5.751203e+01	3.372918e+02
5.577720e+01	5.751203e+01	3.372298e+02
5.629534e+01	5.751203e+01	3.371693e+02
5.681347e+01	5.751203e+01	3.371101e+02
5.733161e+01	5.751203e+01	3.370523e+02
5.784974e+01	5.751203e+01	3.369955e+02
5.836788e+01	5.751203e+01	3.369399e+02
5.888601e+01	5.751203e+01	3.368852e+02
5.940415e+01	5.751203e+01	3.368315e+02
5.992228e+01	5.751203e+01	3.367787e+02
6.044041e+01	5.751203e+01	3.367267e+02
6.095855e+01	5.751203e+01	3.366755e+02
6.147668e+01	5.751203e+01	3.366250e+02
6.199482e+01	5.751203e+01	3.365751e+02
6.251295e+01	5.751203e+01	3.365260e+02
6.303109e+01	5.751203e+01	3.364774e+02
6.354922e+01	5.751203e+01	3.364294e+02
6.406736e+01	5.751203e+01	3.363820e+02
6.458549e+01	5.751203e+01	3.363350e+02
6.510363e+01	5.751203e+01	3.362886e+02
6.562176e+01	5.751203e+01	3.362427e+02
6.613990e+01	5.751203e+01	3.361972e+02
6.665803e+01	5.751203e+01	3.361522e+02
6.717617e+01	5.751203e+01	3.361075e+02
6.769430e+01	5.751203e+01	3.360633e+02
6.821244e+01	5.751203e+01	3.360195e+02
6.873057e+01	5.751203e+01	3.359760e+02
6.924870e+01	5.751203e+01	3.359329e+02
6.976684e+01	5.751203e+01	3.358902e+02
7.028497e+01	5.751203e+01	3.358477e+02
7.080311e+01	5.751203e+01	3.358056e+02
7.132124e+01	5.751203e+01	3.357639e+02
7.183938e+01	5.751203e+01	3.357224e+02
7.235751e+01	5.751203e+01	3.356812e+02
7.287565e+01	5.751203e+01	3.356403e+02
7.339378e+01	5.751203e+01	3.355996e+02
7.391192e+01	5.751203e+01	3.355592e+02
7.443005e+01	5.751203e+01	3.355191e+02
7.494819e+01	5.751203e+01	3.354793e+02
7.546632e+01	5.751203e+01	3.354396e+02
7.598446e+01	5.751203e+01	3.354002e+02
7.650259e+01	5.751203e+01	3.353611e+02
7.702073e+01	5.751203e+01	3.353221e+02
7.753886e+01	5.751203e+01	3.352834e+02
7.805699e+01	5.751203e+01	3.352449e+02
7.857513e+01	5.751203e+01	3.352066e+02
7.909326e+01	5.751203e+01	3.351685e+02
7.961140e+01	5.751203e+01	3.351306e+02
8.012953e+01	5.751203e+01	3.350929e+02
8.064767e+01	5.751203e+01	3.350553e+02
8.116580e+01	5.751203e+01	3.350180e+02
8.168394e+01	5.751203e+01	3.349808e+02
8.220207e+01	5.751203e+01	3.349438e+02
8.272021e+01	5.751203e+01	3.349069e+02
8.323834e+01	5.751203e+01	3.348703e+02
8.375648e+01	5.751203e+01	3.348337e+02
8.427461e+01	5.751203e+01	3.347974e+02
8.479275e+01	5.751203e+01	3.347612e+02
8.531088e+01	5.751203e+01	3.347251e+02
8.582902e+01	5.751203e+01	3.346892e+02
8.634715e+01	5.751203e+01	3.346535e+02
8.686528e+01	5.751203e+01	3.346178e+02
8.738342e+01	5.751203e+01	3.345824e+02
8.790155e+01	5.751203e+01	3.345470e+02
8.841969e+01	5.751203e+01	3.345118e+02
8.893782e+01	5.751203e+01	3.344767e+02
8.945596e+01	5.751203e+01	3.344417e+02
8.997409e+01	5.751203e+01	3.344069e+02
9.049223e+01	5.751203e+01	3.343722e+02
9.101036e+01	5.751203e+01	3.343376e+02
9.152850e+01	5.751203e+01	3.343031e+02
9.204663e+01	5.751203e+01	3.342688e+02
9.256477e+01	5.751203e+01	3.342345e+02
9.308290e+01	5.751203e+01	3.342004e+02
9.360104e+01	5.751203e+01	3.341663e+02
9.411917e+01	5.751203e+01	3.341324e+02
9.463731e+01	5.751203e+01	3.340986e+02
9.515544e+01	5.751203e+01	3.340649e+02
9.567358e+01	5.751203e+01	3.340313e+02
9.619171e+01	5.751203e+01	3.339978e+02
9.670984e+01	5.751203e+01	3.339644e+02
9.722798e+01	5.751203e+01	3.339310e+02
9.774611e+01	5.751203e+01	3.338978e+02
9.826425e+01	5.751203e+01	3.338647e+02
9.878238e+01	5.751203e+01	3.338317e+02
9.930052e+01	5.751203e+01	3.337987e+02
9.981865e+01	5.751203e+01	3.337659e+02
1.003368e+02	5.751203e+01	3.337331e+02
1.008549e+02	5.751203e+01	3.337004e+02
1.013731e+02	5.751203e+01	3.336678e+02
1.018912e+02	5.751203e+01	3.336353e+02
1.024093e+02	5.751203e+01	3.336029e+02
1.029275e+02	5.751203e+01	3.335705e+02
1.034456e+02	5.751203e+01	3.335383e+02
1.039637e+02	5.751203e+01	3.335061e+02
1.044819e+02	5.751203e+01	3.334739e+02
1.050000e+02	5.751203e+01	3.334419e+02
1.055181e+02	5.751203e+01	3.334099e+02
1.060363e+02	5.751203e+01	3.333781e+02
1.065544e+02	5.751203e+01	3.333462e+02
1.070725e+02	5.751203e+01	3.333145e+02
1.075907e+02	5.751203e+01	3.332828e+02
1.081088e+02	5.751203e+01	3.332512e+02
1.086269e+02	5.751203e+01	3.332197e+02
1.091451e+02	5.751203e+01	3.331882e+02
1.096632e+02	5.751203e+01	3.331568e+02
1.101813e+02	5.751203e+01	3.331255e+02
1.106995e+02	5.751203e+01	3.330942e+02
1.112176e+02	5.751203e+01	3.330630e+02
1.117358e+02	5.751203e+01	3.330319e+02
1.122539e+02	5.751203e+01	3.330008e+02
1.127720e+02	5.751203e+01	3.329698e+02
1.132902e+02	5.751203e+01	3.329389e+02
1.138083e+02	5.751203e+01	3.329080e+02
1.143264e+02	5.751203e+01	3.328772e+02
1.148446e+02	5.751203e+01	3.328464e+02
1.153627e+02	5.751203e+01	3.328157e+02
1.158808e+02	5.751203e+01	3.327850e+02
1.163990e+02	5.751203e+01	3.327544e+02
1.169171e+02	5.751203e+01	3.327239e+02
1.174352e+02	5.751203e+01	3.326934e+02
1.179534e+02	5.751203e+01	3.326630e+02
1.184715e+02	5.751203e+01	3.326326e+02
1.189896e+02	5.751203e+01	3.326023e+02
1.195078e+02	5.751203e+01	3.325720e+02
1.200259e+02	5.751203e+01	3.325418e+02
1.205440e+02	5.751203e+01	3.325117e+02
1.210622e+02	5.751203e+01	3.324816e+02
1.215803e+02	5.751203e+01	3.324515e+02
1.220984e+02	5.751203e+01	3.324215e+02
1.226166e+02	5.751203e+01	3.323916e+02
1.231347e+02	5.751203e+01	3.323617e+02
1.236528e+02	5.751203e+01	3.323318e+02
1.241710e+02	5.751203e+01	3.323020e+02
1.246891e+02	5.751203e+01	3.322722e+02
1.252073e+02	5.751203e+01	3.322425e+02
1.257254e+02	5.751203e+01	3.322129e+02
1.262435e+02	5.751203e+01	3.321832e+02
1.267617e+02	5.751203e+01	3.321537e+02
1.272798e+02	5.751203e+01	3.321242e+02
1.277979e+02	5.751203e+01	3.320947e+02
1.283161e+02	5.751203e+01	3.320652e+02
1.288342e+02	5.751203e+01	3.320359e+02
1.293523e+02	5.751203e+01	3.320065e+02
1.298705e+02	5.751203e+01	3.319772e+02
1.303886e+02	5.751203e+01	3.319479e+02
1.309067e+02	5.751203e+01	3.319187e+02
1.314249e+02	5.751203e+01	3.318896e+02
1.319430e+02	5.751203e+01	3.318604e+02
1.324611e+02	5.751203e+01	3.318313e+02
1.329793e+02	5.751203e+01	3.318023e+02
1.334974e+02	5.751203e+01	3.317733e+02
1.340155e+02	5.751203e+01	3.317443e+02
1.345337e+02	5.751203e+01	3.317154e+02
1.350518e+02	5.751203e+01	3.316865e+02
1.355699e+02	5.751203e+01	3.316577e+02
1.360881e+02	5.751203e+01	3.316289e+02
1.366062e+02	5.751203e+01	3.316001e+02
1.371244e+02	5.751203e+01	3.315714e+02
1.376425e+02	5.751203e+01	3.315427e+02
1.381606e+02	5.751203e+01	3.315140e+02
1.386788e+02	5.751203e+01	3.314854e+02
1.391969e+02	5.751203e+01	3.314569e+02
1.397150e+02	5.751203e+01	3.314283e+02
1.402332e+02	5.751203e+01	3.313998e+02
1.407513e+02	5.751203e+01	3.313714e+02
1.412694e+02	5.751203e+01	3.313429e+02
1.417876e+02	5.751203e+01	3.313145e+02
1.423057e+02	5.751203e+01	3.312862e+02
1.428238e+02	5.751203e+01	3.312579e+02
1.433420e+02	5.751203e+01	3.312296e+02
1.438601e+02	5.751203e+01	3.312014e+02
1.443782e+02	5.751203e+01	3.311731e+02
1.448964e+02	5.751203e+01	3.311450e+02
1.454145e+02	5.751203e+01	3.311168e+02
1.459326e+02	5.751203e+01	3.310887e+02
1.464508e+02	5.751203e+01	3.310606e+02
1.469689e+02	5.751203e+01	3.310326e+02
1.474870e+02	5.751203e+01	3.310046e+02
1.480052e+02	5.751203e+01	3.309766e+02
1.485233e+02	5.751203e+01	3.309487e+02
1.490415e+02	5.751203e+01	3.309208e+02
1.495596e+02	5.751203e+01	3.308929e+02
1.500777e+02	5.751203e+01	3.308651e+02
1.505959e+02	5.751203e+01	3.308373e+02
1.511140e+02	5.751203e+01	3.308095e+02
1.516321e+02	5.751203e+01	3.307818e+02
1.521503e+02	5.751203e+01	3.307541e+02
1.526684e+02	5.751203e+01	3.307264e+02
1.531865e+02	5.751203e+01	3.306987e+02
1.537047e+02	5.751203e+01	3.306711e+02
1.542228e+02	5.751203e+01	3.306436e+02
1.547409e+02	5.751203e+01	3.306160e+02
1.552591e+02	5.751203e+01	3.305885e+02
1.557772e+02	5.751203e+01	3.305610e+02
1.562953e+02	5.751203e+01	3.305335e+02
1.568135e+02	5.751203e+01	3.305061e+02
1.573316e+02	5.751203e+01	3.304787e+02
1.578497e+02	5.751203e+01	3.304514e+02
1.583679e+02	5.751203e+01	3.304240e+02
1.588860e+02	5.751203e+01	3.303967e+02
1.594041e+02	5.751203e+01	3.303694e+02
1.599223e+02	5.751203e+01	3.303422e+02
1.604404e+02	5.751203e+01	3.303150e+02
1.609585e+02	5.751203e+01	3.302878e+02
1.614767e+02	5.751203e+01	3.302606e+02
1.619948e+02	5.751203e+01	3.302335e+02
1.625130e+02	5.751203e+01	3.302064e+02
1.630311e+02	5.751203e+01	3.301793e+02
1.635492e+02	5.751203e+01	3.301523e+02
1.640674e+02	5.751203e+01	3.301253e+02
1.645855e+02	5.751203e+01	3.300983e+02
1.651036e+02	5.751203e+01	3.300713e+02
1.656218e+02	5.751203e+01	3.300444e+02
1.661399e+02	5.751203e+01	3.300175e+02
1.666580e+02	5.751203e+01	3.299906e+02
1.671762e+02	5.751203e+01	3.299638e+02
1.676943e+02	5.751203e+01	3.299370e+02
1.682124e+02	5.751203e+01	3.299102e+02
1.687306e+02	5.751203e+01	3.298834e+02
1.692487e+02	5.751203e+01	3.298567e+02
1.697668e+02	5.751203e+01	3.298300e+02
1.702850e+02	5.751203e+01	3.298033e+02
1.708031e+02	5.751203e+01	3.297767e+02
1.713212e+02	5.751203e+01	3.297501e+02
1.718394e+02	5.751203e+01	3.297235e+02
1.723575e+02	5.751203e+01	3.296969e+02
1.728756e+02	5.751203e+01	3.296703e+02
1.733938e+02	5.751203e+01	3.296438e+02
1.739119e+02	5.751203e+01	3.296173e+02
1.744301e+02	5.751203e+01	3.295909e+02
1.749482e+02	5.751203e+01	3.295644e+02
1.754663e+02	5.751203e+01	3.295380e+02
1.759845e+02	5.751203e+01	3.295117e+02
1.765026e+02	5.751203e+01	3.294853e+02
1.770207e+02	5.751203e+01	3.294590e+02
1.775389e+02	5.751203e+01	3.294327e+02
1.780570e+02	5.751203e+01	3.294064e+02
1.785751e+02	5.751203e+01	3.293801e+02
1.790933e+02	5.751203e+01	3.293539e+02
1.796114e+02	5.751203e+01	3.293277e+02
1.801295e+02	5.751203e+01	3.293015e+02
1.806477e+02	5.751203e+01	3.292754e+02
1.811658e+02	5.751203e+01	3.292493e+02
1.816839e+02	5.751203e+01	3.292232e+02
1.822021e+02	5.751203e+01	3.291971e+02
1.827202e+02	5.751203e+01	3.291711e+02
1.832383e+02	5.751203e+01	3.291450e+02
1.837565e+02	5.751203e+01	3.291190e+02
1.842746e+02	5.751203e+01	3.290931e+02
1.847927e+02	5.751203e+01	3.290671e+02
1.853109e+02	5.751203e+01	3.290412e+02
1.858290e+02	5.751203e+01	3.290153e+02
1.863472e+02	5.751203e+01	3.289894e+02
1.868653e+02	5.751203e+01	3.289636e+02
1.873834e+02	5.751203e+01	3.289378e+02
1.879016e+02	5.751203e+01	3.289120e+02
1.884197e+02	5.751203e+01	3.288862e+02
1.889378e+02	5.751203e+01	3.288604e+02
1.894560e+02	5.751203e+01	3.288347e+02
1.899741e+02	5.751203e+01	3.288090e+02
1.904922e+02	5.751203e+01	3.287833e+02
1.910104e+02	5.751203e+01	3.287577e+02
1.915285e+02	5.751203e+01	3.287321e+02
1.920466e+02	5.751203e+01	3.287065e+02
1.925648e+02	5.751203e+01	3.286809e+02
1.930829e+02	5.751203e+01	3.286553e+02
1.936010e+02	5.751203e+01	3.286298e+02
1.941192e+02	5.751203e+01	3.286043e+02
1.946373e+02	5.751203e+01	3.285788e+02
1.951554e+02	5.751203e+01	3.285534e+02
1.956736e+02	5.751203e+01	3.285279e+02
1.961917e+02	5.751203e+01	3.285025e+02
1.967098e+02	5.751203e+01	3.284771e+02
1.972280e+02	5.751203e+01	3.284518e+02
1.977461e+02	5.751203e+01	3.284264e+02
1.982642e+02	5.751203e+01	3.284011e+02
1.987824e+02	5.751203e+01	3.283758e+02
1.993005e+02	5.751203e+01	3.283506e+02
1.998187e+02	5.751203e+01	3.283253e+02
2.003368e+02	5.751203e+01	3.283001e+02
2.008549e+02	5.751203e+01	3.282749e+02
2.013731e+02	5.751203e+01	3.282497e+02
2.018912e+02	5.751203e+01	3.282246e+02
2.024093e+02	5.751203e+01	3.281995e+02
2.029275e+02	5.751203e+01	3.281744e+02
2.034456e+02	5.751203e+01	3.281493e+02
2.039637e+02	5.751203e+01	3.281242e+02
2.044819e+02	5.751203e+01	3.280992e+02
2.050000e+02	5.751203e+01	3.280742e+02
2.055181e+02	5.751203e+01	3.280492e+02
2.060363e+02	5.751203e+01	3.280242e+02
2.065544e+02	5.751203e+01	3.279993e+02
2.070725e+02	5.751203e+01	3.279744e+02
2.075907e+02	5.751203e+01	3.279495e+02
2.081088e+02	5.751203e+01	3.279246e+02
2.086269e+02	5.751203e+01	3.278998e+02
2.091451e+02	5.751203e+01	3.278749e+02
2.096632e+02	5.751203e+01	3.278501e+02
2.101813e+02	5.751203e+01	3.278254e+02
2.106995e+02	5.751203e+01	3.278006e+02
2.112176e+02	5.751203e+01	3.277759e+02
2.117358e+02	5.751203e+01	3.277511e+02
2.122539e+02	5.751203e+01	3.277265e+02
2.127720e+02	5.751203e+01	3.277018e+02
2.132902e+02	5.751203e+01	3.276771e+02
2.138083e+02	5.751203e+01	3.276525e+02
2.143264e+02	5.751203e+01	3.276279e+02
2.148446e+02	5.751203e+01	3.276033e+02
2.153627e+02	5.751203e+01	3.275788e+02
2.158808e+02	5.751203e+01	3.275543e+02
2.163990e+02	5.751203e+01	3.275297e+02
2.169171e+02	5.751203e+01	3.275053e+02
2.174352e+02	5.751203e+01	3.274808e+02
2.179534e+02	5.751203e+01	3.274563e+02
2.184715e+02	5.751203e+01	3.274319e+02
2.189896e+02	5.751203e+01	3.274075e+02
2.195078e+02	5.751203e+01	3.273831e+02
2.200259e+02	5.751203e+01	3.273588e+02
2.205440e+02	5.751203e+01	3.273345e+02
2.210622e+02	5.751203e+01	3.273101e+02
2.215803e+02	5.751203e+01	3.272859e+02
2.220984e+02	5.751203e+01	3.272616e+02
2.226166e+02	5.751203e+01	3.272373e+02
2.231347e+02	5.751203e+01	3.272131e+02
2.236528e+02	5.751203e+01	3.271889e+02
2.241710e+02	5.751203e+01	3.271647e+02
2.246891e+02	5.751203e+01	3.271406e+02
2.252073e+02	5.751203e+01	3.271164e+02
2.257254e+02	5.751203e+01	3.270923e+02
2.262435e+02	5.751203e+01	3.270682e+02
2.267617e+02	5.751203e+01	3.270442e+02
2.272798e+02	5.751203e+01	3.270201e+02
2.277979e+02	5.751203e+01	3.269961e+02
2.283161e+02	5.751203e+01	3.269721e+02
2.288342e+02	5.751203e+01	3.269481e+02
2.293523e+02	5.751203e+01	3.269241e+02
2.298705e+02	5.751203e+01	3.269002e+02
2.303886e+02	5.751203e+01	3.268763e+02
2.309067e+02	5.751203e+01	3.268524e+02
2.314249e+02	5.751203e+01	3.268285e+02
2.319430e+02	5.751203e+01	3.268047e+02
2.324611e+02	5.751203e+01	3.267808e+02
2.329793e+02	5.751203e+01	3.267570e+02
2.334974e+02	5.751203e+01	3.267332e+02
2.340155e+02	5.751203e+01	3.267095e+02
2.345337e+02	5.751203e+01	3.266857e+02
2.350518e+02	5.751203e+01	3.266620e+02
2.355699e+02	5.751203e+01	3.266383e+02
2.360881e+02	5.751203e+01	3.266146e+02
2.366062e+02	5.751203e+01	3.265909e+02
2.371244e+02	5.751203e+01	3.265673e+02
2.376425e+02	5.751203e+01	3.265437e+02
2.381606e+02	5.751203e+01	3.265201e+02
2.386788e+02	5.751203e+01	3.264965e+02
2.391969e+02	5.751203e+01	3.264729e+02
2.397150e+02	5.751203e+01	3.264494e+02
2.402332e+02	5.751203e+01	3.264259e+02
2.407513e+02	5.751203e+01	3.264024e+02
2.412694e+02	5.751203e+01	3.263789e+02
2.417876e+02	5.751203e+01	3.263555e+02
2.423057e+02	5.751203e+01	3.263320e+02
2.428238e+02	5.751203e+01	3.263086e+02
2.433420e+02	5.751203e+01	3.262852e+02
2.438601e+02	5.751203e+01	3.262619e+02
2.443782e+02	5.751203e+01	3.262385e+02
2.448964e+02	5.751203e+01	3.262152e+02
2.454145e+02	5.751203e+01	3.261919e+02
2.459326e+02	5.751203e+01	3.261686e+02
2.464508e+02	5.751203e+01	3.261454e+02
2.469689e+02	5.751203e+01	3.261221e+02
2.474870e+02	5.751203e+01	3.260989e+02
2.480052e+02	5.751203e+01	3.260757e+02
2.485233e+02	5.751203e+01	3.260525e+02
2.490415e+02	5.751203e+01	3.260293e+02
2.495596e+02	5.751203e+01	3.260062e+02
2.500777e+02	5.751203e+01	3.259831e+02
2.505959e+02	5.751203e+01	3.259600e+02
2.511140e+02	5.751203e+01	3.259369e+02
2.516321e+02	5.751203e+01	3.259139e+02
2.521503e+02	5.751203e+01	3.258908e+02
2.526684e+02	5.751203e+01	3.258678e+02
2.531865e+02	5.751203e+01	3.258448e+02
2.537047e+02	5.751203e+01	3.258218e+02
2.542228e+02	5.751203e+01	3.257989e+02
2.547409e+02	5.751203e+01	3.257760e+02
2.552591e+02	5.751203e+01	3.257530e+02
2.557772e+02	5.751203e+01	3.257302e+02
2.562953e+02	5.751203e+01	3.257073e+02
2.568135e+02	5.751203e+01	3.256844e+02
2.573316e+02	5.751203e+01	3.256616e+02
2.578497e+02	5.751203e+01	3.256388e+02
2.583679e+02	5.751203e+01	3.256160e+02
2.588860e+02	5.751203e+01	3.255932e+02
2.594041e+02	5.751203e+01	3.255705e+02
2.599223e+02	5.751203e+01	3.255478e+02
2.604404e+02	5.751203e+01	3.255250e+02
2.609585e+02	5.751203e+01	3.255024e+02
2.614767e+02	5.751203e+01	3.254797e+02
2.619948e+02	5.751203e+01	3.254570e+02
2.625130e+02	5.751203e+01	3.254344e+02
2.630311e+02	5.751203e+01	3.254118e+02
2.635492e+02	5.751203e+01	3.253892e+02
2.640674e+02	5.751203e+01	3.253667e+02
2.645855e+02	5.751203e+01	3.253441e+02
2.651036e+02	5.751203e+01	3.253216e+02
2.656218e+02	5.751203e+01	3.252991e+02
2.661399e+02	5.751203e+01	3.252766e+02
2.666580e+02	5.751203e+01	3.252541e+02
2.671762e+02	5.751203e+01	3.252317e+02
2.676943e+02	5.751203e+01	3.252092e+02
2.682124e+02	5.751203e+01	3.251868e+02
2.687306e+02	5.751203e+01	3.251644e+02
2.692487e+02	5.751203e+01	3.251421e+02
2.697668e+02	5.751203e+01	3.251197e+02
2.702850e+02	5.751203e+01	3.250974e+02
2.708031e+02	5.751203e+01	3.250751e+02
2.713212e+02	5.751203e+01	3.250528e+02
2.718394e+02	5.751203e+01	3.250305e+02
2.723575e+02	5.751203e+01	3.250083e+02
2.728756e+02	5.751203e+01	3.249861e+02
2.733938e+02	5.751203e+01	3.249639e+02
2.739119e+02	5.751203e+01	3.249417e+02
2.744301e+02	5.751203e+01	3.249195e+02
2.749482e+02	5.751203e+01	3.248974e+02
2.754663e+02	5.751203e+01	3.248752e+02
2.759845e+02	5.751203e+01	3.248531e+02
2.765026e+02	5.751203e+01	3.248310e+02
2.770207e+02	5.751203e+01	3.248090e+02
2.775389e+02	5.751203e+01	3.247869e+02
2.780570e+02	5.751203e+01	3.247649e+02
2.785751e+02	5.751203e+01	3.247429e+02
2.790933e+02	5.751203e+01	3.247209e+02
2.796114e+02	5.751203e+01	3.246989e+02
2.801295e+02	5.751203e+01	3.246769e+02
2.806477e+02	5.751203e+01	3.246550e+02
2.811658e+02	5.751203e+01	3.246331e+02
2.816839e+02	5.751203e+01	3.246112e+02
2.822021e+02	5.751203e+01	3.245893e+02
2.827202e+02	5.751203e+01	3.245675e+02
2.832383e+02	5.751203e+01	3.245456e+02
2.837565e+02	5.751203e+01	3.245238e+02
2.842746e+02	5.751203e+01	3.245020e+02
2.847927e+02	5.751203e+01	3.244802e+02
2.853109e+02	5.751203e+01	3.244585e+02
2.858290e+02	5.751203e+01	3.244368e+02
2.863472e+02	5.751203e+01	3.244150e+02
2.868653e+02	5.751203e+01	3.243933e+02
2.873834e+02	5.751203e+01	3.243717e+02
2.879016e+02	5.751203e+01	3.243500e+02
2.884197e+02	5.751203e+01	3.243283e+02
2.889378e+02	5.751203e+01	3.243067e+02
2.894560e+02	5.751203e+01	3.242851e+02
2.899741e+02	5.751203e+01	3.242635e+02
2.904922e+02	5.751203e+01	3.242420e+02
2.910104e+02	5.751203e+01	3.242204e+02
2.915285e+02	5.751203e+01	3.241989e+02
2.920466e+02	5.751203e+01	3.241774e+02
2.925648e+02	5.751203e+01	3.241559e+02
2.930829e+02	5.751203e+01	3.241344e+02
2.936010e+02	5.751203e+01	3.241130e+02
2.941192e+02	5.751203e+01	3.240916e+02
2.946373e+02	5.751203e+01	3.240701e+02
2.951554e+02	5.751203e+01	3.240487e+02
2.956736e+02	5.751203e+01	3.240274e+02
2.961917e+02	5.751203e+01	3.240060e+02
2.967098e+02	5.751203e+01	3.239847e+02
2.972280e+02	5.751203e+01	3.239634e+02
2.977461e+02	5.751203e+01	3.239421e+02
2.982642e+02	5.751203e+01	3.239208e+02
2.987824e+02	5.751203e+01	3.238995e+02
2.993005e+02	5.751203e+01	3.238783e+02
2.998187e+02	5.751203e+01	3.238571e+02
3.003368e+02	5.751203e+01	3.238359e+02
3.008549e+02	5.751203e+01	3.238147e+02
3.013731e+02	5.751203e+01	3.237935e+02
3.018912e+02	5.751203e+01	3.237724e+02
3.024093e+02	5.751203e+01	3.237512e+02
3.029275e+02	5.751203e+01	3.237301e+02
3.034456e+02	5.751203e+01	3.237090e+02
3.039637e+02	5.751203e+01	3.236880e+02
3.044819e+02	5.751203e+01	3.236669e+02
3.050000e+02	5.751203e+01	3.236459e+02
3.055181e+02	5.751203e+01	3.236249e+02
3.060363e+02	5.751203e+01	3.236039e+02
3.065544e+02	5.751203e+01	3.235829e+02
3.070725e+02	5.751203e+01	3.235619e+02
3.075907e+02	5.751203e+01	3.235410e+02
3.081088e+02	5.751203e+01	3.235201e+02
3.086269e+02	5.751203e+01	3.234992e+02
3.091451e+02	5.751203e+01	3.234783e+02
3.096632e+02	5.751203e+01	3.234574e+02
3.101813e+02	5.751203e+01	3.234366e+02
3.106995e+02	5.751203e+01	3.234157e+02
3.112176e+02	5.751203e+01	3.233949e+02
3.117358e+02	5.751203e+01	3.233741e+02
3.122539e+02	5.751203e+01	3.233533e+02
3.127720e+02	5.751203e+01	3.233326e+02
3.132902e+02	5.751203e+01	3.233119e+02
3.138083e+02	5.751203e+01	3.232911e+02
3.143264e+02	5.751203e+01	3.232704e+02
3.148446e+02	5.751203e+01	3.232498e+02
3.153627e+02	5.751203e+01	3.232291e+02
3.158808e+02	5.751203e+01	3.232084e+02
3.163990e+02	5.751203e+01	3.231878e+02
3.169171e+02	5.751203e+01	3.231672e+02
3.174352e+02	5.751203e+01	3.231466e+02
3.179534e+02	5.751203e+01	3.231261e+02
3.184715e+02	5.751203e+01	3.231055e+02
3.189896e+02	5.751203e+01	3.230850e+02
3.195078e+02	5.751203e+01	3.230644e+02
3.200259e+02	5.751203e+01	3.230439e+02
3.205440e+02	5.751203e+01	3.230235e+02
3.210622e+02	5.751203e+01	3.230030e+02
3.215803e+02	5.751203e+01	3.229826e+02
3.220984e+02	5.751203e+01	3.229621e+02
3.226166e+02	5.751203e+01	3.229417e+02
3.231347e+02	5.751203e+01	3.229213e+02
3.236528e+02	5.751203e+01	3.229010e+02
3.241710e+02	5.751203e+01	3.228806e+02
3.246891e+02	5.751203e+01	3.228603e+02
3.252073e+02	5.751203e+01	3.228400e+02
3.257254e+02	5.751203e+01	3.228197e+02
3.262435e+02	5.751203e+01	3.227994e+02
3.267617e+02	5.751203e+01	3.227791e+02
3.272798e+02	5.751203e+01	3.227589e+02
3.277979e+02	5.751203e+01	3.227387e+02
3.283161e+02	5.751203e+01	3.227184e+02
3.288342e+02	5.751203e+01	3.226983e+02
3.293523e+02	5.751203e+01	3.226781e+02
3.298705e+02	5.751203e+01	3.226579e+02
3.303886e+02	5.751203e+01	3.226378e+02
3.309067e+02	5.751203e+01	3.226177e+02
3.314249e+02	5.751203e+01	3.225976e+02
3.319430e+02	5.751203e+01	3.225775e+02
3.324611e+02	5.751203e+01	3.225574e+02
3.329793e+02	5.751203e+01	3.225374e+02
3.334974e+02	5.751203e+01	3.225173e+02
3.340155e+02	5.751203e+01	3.224973e+02
3.345337e+02	5.751203e+01	3.224773e+02
3.350518e+02	5.751203e+01	3.224574e+02
3.355699e+02	5.751203e+01	3.224374e+02
3.360881e+02	5.751203e+01	3.224175e+02
3.366062e+02	5.751203e+01	3.223975e+02
3.371244e+02	5.751203e+01	3.223776e+02
3.376425e+02	5.751203e+01	3.223578e+02
3.381606e+02	5.751203e+01	3.223379e+02
3.386788e+02	5.751203e+01	3.223180e+02
3.391969e+02	5.751203e+01	3.222982e+02
3.397150e+02	5.751203e+01	3.222784e+02
3.402332e+02	5.751203e+01	3.222586e+02
3.407513e+02	5.751203e+01	3.222388e+02
3.412694e+02	5.751203e+01	3.222190e+02
3.417876e+02	5.751203e+01	3.221993e+02
3.423057e+02	5.751203e+01	3.221796e+02
3.428238e+02	5.751203e+01	3.221598e+02
3.433420e+02	5.751203e+01	3.221402e+02
3.438601e+02	5.751203e+01	3.221205e+02
3.443782e+02	5.751203e+01	3.221008e+02
3.448964e+02	5.751203e+01	3.220812e+02
3.454145e+02	5.751203e+01	3.220616e+02
3.459326e+02	5.751203e+01	3.220420e+02
3.464508e+02	5.751203e+01	3.220224e+02
3.469689e+02	5.751203e+01	3.220028e+02
3.474870e+02	5.751203e+01	3.219832e+02
3.480052e+02	5.751203e+01	3.219637e+02
3.485233e+02	5.751203e+01	3.219442e+02
3.490415e+02	5.751203e+01	3.219247e+02
3.495596e+02	5.751203e+01	3.219052e+02
3.500777e+02	5.751203e+01	3.218857e+02
3.505959e+02	5.751203e+01	3.218663e+02
3.511140e+02	5.751203e+01	3.218469e+02
3.516321e+02	5.751203e+01	3.218274e+02
3.521503e+02	5.751203e+01	3.218080e+02
3.526684e+02	5.751203e+01	3.217887e+02
3.531865e+02	5.751203e+01	3.217693e+02
3.537047e+02	5.751203e+01	3.217500e+02
3.542228e+02	5.751203e+01	3.217306e+02
3.547409e+02	5.751203e+01	3.217113e+02
3.552591e+02	5.751203e+01	3.216920e+02
3.557772e+02	5.751203e+01	3.216727e+02
3.562953e+02	5.751203e+01	3.216535e+02
3.568135e+02	5.751203e+01	3.216342e+02
3.573316e+02	5.751203e+01	3.216150e+02
3.578497e+02	5.751203e+01	3.215958e+02
3.583679e+02	5.751203e+01	3.215766e+02
3.588860e+02	5.751203e+01	3.215574e+02
3.594041e+02	5.751203e+01	3.215383e+02
3.599223e+02	5.751203e+01	3.215191e+02
3.604404e+02	5.751203e+01	3.215000e+02
3.609585e+02	5.751203e+01	3.214809e+02
3.614767e+02	5.751203e+01	3.214618e+02
3.619948e+02	5.751203e+01	3.214428e+02
3.625130e+02	5.751203e+01	3.214237e+02
3.630311e+02	5.751203e+01	3.214047e+02
3.635492e+02	5.751203e+01	3.213856e+02
3.640674e+02	5.751203e+01	3.213666e+02
3.645855e+02	5.751203e+01	3.213476e+02
3.651036e+02	5.751203e+01	3.213287e+02
3.656218e+02	5.751203e+01	3.213097e+02
3.661399e+02	5.751203e+01	3.212908e+02
3.666580e+02	5.751203e+01	3.212719e+02
3.671762e+02	5.751203e+01	3.212530e+02
3.676943e+02	5.751203e+01	3.212341e+02
3.682124e+02	5.751203e+01	3.212152e+02
3.687306e+02	5.751203e+01	3.211964e+02
3.692487e+02	5.751203e+01	3.211775e+02
3.697668e+02	5.751203e+01	3.211587e+02
3.702850e+02	5.751203e+01	3.211399e+02
3.708031e+02	5.751203e+01	3.211211e+02
3.713212e+02	5.751203e+01	3.211023e+02
3.718394e+02	5.751203e+01	3.210836e+02
3.723575e+02	5.751203e+01	3.210649e+02
3.728756e+02	5.751203e+01	3.210461e+02
3.733938e+02	5.751203e+01	3.210274e+02
3.739119e+02	5.751203e+01	3.210088e+02
3.744301e+02	5.751203e+01	3.209901e+02
3.749482e+02	5.751203e+01	3.209714e+02
3.754663e+02	5.751203e+01	3.209528e+02
3.759845e+02	5.751203e+01	3.209342e+02
3.765026e+02	5.751203e+01	3.209156e+02
3.770207e+02	5.751203e+01	3.208970e+02
3.775389e+02	5.751203e+01	3.208784e+02
3.780570e+02	5.751203e+01	3.208599e+02
3.785751e+02	5.751203e+01	3.208413e+02
3.790933e+02	5.751203e+01	3.208228e+02
3.796114e+02	5.751203e+01	3.208043e+02
3.801295e+02	5.751203e+01	3.207858e+02
3.806477e+02	5.751203e+01	3.207674e+02
3.811658e+02	5.751203e+01	3.207489e+02
3.816839e+02	5.751203e+01	3.207305e+02
3.822021e+02	5.751203e+01	3.207120e+02
3.827202e+02	5.751203e+01	3.206936e+02
3.832383e+02	5.751203e+01	3.206753e+02
3.837565e+02	5.751203e+01	3.206569e+02
3.842746e+02	5.751203e+01	3.206385e+02
3.847927e+02	5.751203e+01	3.206202e+02
3.853109e+02	5.751203e+01	3.206019e+02
3.858290e+02	5.751203e+01	3.205836e+02
3.863472e+02	5.751203e+01	3.205653e+02
3.868653e+02	5.751203e+01	3.205470e+02
3.873834e+02	5.751203e+01	3.205287e+02
3.879016e+02	5.751203e+01	3.205105e+02
3.884197e+02	5.751203e+01	3.204923e+02
3.889378e+02	5.751203e+01	3.204741e+02
3.894560e+02	5.751203e+01	3.204559e+02
3.899741e+02	5.751203e+01	3.204377e+02
3.904922e+02	5.751203e+01	3.204195e+02
3.910104e+02	5.751203e+01	3.204014e+02
3.915285e+02	5.751203e+01	3.203833e+02
3.920466e+02	5.751203e+01	3.203651e+02
3.925648e+02	5.751203e+01	3.203471e+02
3.930829e+02	5.751203e+01	3.203290e+02
3.936010e+02	5.751203e+01	3.203109e+02
3.941192e+02	5.751203e+01	3.202929e+02
3.946373e+02	5.751203e+01	3.202748e+02
3.951554e+02	5.751203e+01	3.202568e+02
3.956736e+02	5.751203e+01	3.202388e+02
3.961917e+02	5.751203e+01	3.202208e+02
3.967098e+02	5.751203e+01	3.202029e+02
3.972280e+02	5.751203e+01	3.201849e+02
3.977461e+02	5.751203e+01	3.201670e+02
3.982642e+02	5.751203e+01	3.201491e+02
3.987824e+02	5.751203e+01	3.201312e+02
3.993005e+02	5.751203e+01	3.201133e+02
3.998187e+02	5.751203e+01	3.200954e+02
4.003368e+02	5.751203e+01	3.200775e+02
4.008549e+02	5.751203e+01	3.200597e+02
4.013731e+02	5.751203e+01	3.200419e+02
4.018912e+02	5.751203e+01	3.200241e+02
4.024093e+02	5.751203e+01	3.200063e+02
4.029275e+02	5.751203e+01	3.199885e+02
4.034456e+02	5.751203e+01	3.199707e+02
4.039637e+02	5.751203e+01	3.199530e+02
4.044819e+02	5.751203e+01	3.199353e+02
4.050000e+02	5.751203e+01	3.199176e+02
4.055181e+02	5.751203e+01	3.198999e+02
4.060363e+02	5.751203e+01	3.198822e+02
4.065544e+02	5.751203e+01	3.198645e+02
4.070725e+02	5.751203e+01	3.198469e+02
4.075907e+02	5.751203e+01	3.198292e+02
4.081088e+02	5.751203e+01	3.198116e+02
4.086269e+02	5.751203e+01	3.197940e+02
4.091451e+02	5.751203e+01	3.197764e+02
4.096632e+02	5.751203e+01	3.197589e+02
4.101813e+02	5.751203e+01	3.197413e+02
4.106995e+02	5.751203e+01	3.197238e+02
4.112176e+02	5.751203e+01	3.197062e+02
4.117358e+02	5.751203e+01	3.196887e+02
4.122539e+02	5.751203e+01	3.196712e+02
4.127720e+02	5.751203e+01	3.196538e+02
4.132902e+02	5.751203e+01	3.196363e+02
4.138083e+02	5.751203e+01	3.196189e+02
4.143264e+02	5.751203e+01	3.196014e+02
4.148446e+02	5.751203e+01	3.195840e+02
4.153627e+02	5.751203e+01	3.195666e+02
4.158808e+02	5.751203e+01	3.195492e+02
4.163990e+02	5.751203e+01	3.195319e+02
4.169171e+02	5.751203e+01	3.195145e+02
4.174352e+02	5.751203e+01	3.194972e+02
4.179534e+02	5.751203e+01	3.194798e+02
4.184715e+02	5.751203e+01	3.194625e+02
4.189896e+02	5.751203e+01	3.194452e+02
4.195078e+02	5.751203e+01	3.194280e+02
4.200259e+02	5.751203e+01	3.194107e+02
4.205440e+02	5.751203e+01	3.193935e+02
4.210622e+02	5.751203e+01	3.193762e+02
4.215803e+02	5.751203e+01	3.193590e+02
4.220984e+02	5.751203e+01	3.193418e+02
4.226166e+02	5.751203e+01	3.193246e+02
4.231347e+02	5.751203e+01	3.193075e+02
4.236528e+02	5.751203e+01	3.192903e+02
4.241710e+02	5.751203e+01	3.192732e+02
4.246891e+02	5.751203e+01	3.192561e+02
4.252073e+02	5.751203e+01	3.192389e+02
4.257254e+02	5.751203e+01	3.192219e+02
4.262435e+02	5.751203e+01	3.192048e+02
4.267617e+02	5.751203e+01	3.191877e+02
4.272798e+02	5.751203e+01	3.191707e+02
4.277979e+02	5.751203e+01	3.191536e+02
4.283161e+02	5.751203e+01	3.191366e+02
4.288342e+02	5.751203e+01	3.191196e+02
4.293523e+02	5.751203e+01	3.191026e+02
4.298705e+02	5.751203e+01	3.190857e+02
4.303886e+02	5.751203e+01	3.190687e+02
4.309067e+02	5.751203e+01	3.190518e+02
4.314249e+02	5.751203e+01	3.190348e+02
4.319430e+02	5.751203e+01	3.190179e+02
4.324611e+02	5.751203e+01	3.190010e+02
4.329793e+02	5.751203e+01	3.189842e+02
4.334974e+02	5.751203e+01	3.189673e+02
4.340155e+02	5.751203e+01	3.189504e+02
4.345337e+02	5.751203e+01	3.189336e+02
4.350518e+02	5.751203e+01	3.189168e+02
4.355699e+02	5.751203e+01	3.189000e+02
4.360881e+02	5.751203e+01	3.188832e+02
4.366062e+02	5.751203e+01	3.188664e+02
4.371244e+02	5.751203e+01	3.188497e+02