/*--------------------------------*- C++ -*----------------------------------*\
| =========                 |                                                 |
| \\      /  F ield         | OpenFOAM: The Open Source CFD Toolbox           |
|  \\    /   O peration     | Version:  2.3.1                                 |
|   \\  /    A nd           | Web:      www.OpenFOAM.org                      |
|    \\/     M anipulation  |                                                 |
\*---------------------------------------------------------------------------*/
FoamFile
{
    version     2.0;
    format      ascii;
    class       volScalarField;
    location    "40/fluid";
    object      p_rgh;
}
// * * * * * * * * * * * * * * * * * * * * * * * * * * * * * * * * * * * * * //

dimensions      [1 -1 -2 0 0 0 0];

internalField   nonuniform List<scalar> 
25373
(
0.0237625
0.0450136
0.0237456
0.0490349
0.0507535
0.0449418
0.0507405
0.0641548
0.0209167
0.0473087
0.0567032
0.0684398
0.0311108
0.0219114
0.0311036
0.0236579
0.0266918
0.021925
0.0267025
0.0237303
0.0299355
0.0235571
0.0261564
0.0259348
0.0595481
0.0737418
0.0595367
0.0814811
0.0927359
0.0737104
0.092769
0.102372
0.0546465
0.07725
0.0941092
0.100371
0.0845389
0.0872412
0.0845256
0.0897838
0.0937183
0.0872373
0.0937567
0.0974251
0.0808542
0.0883703
0.0947527
0.098181
0.11434
0.111784
0.114345
0.111772
0.110785
0.111826
0.110825
0.110592
0.1119
0.110491
0.110232
0.110834
0.14637
0.137219
0.146364
0.134139
0.126953
0.137225
0.127007
0.121288
0.145857
0.132674
0.123385
0.119312
0.177418
0.160002
0.177295
0.153161
0.13577
0.160095
0.135638
0.120968
0.178466
0.150615
0.12653
0.114644
0.198125
0.172886
0.198111
0.162905
0.133328
0.1728
0.133151
0.106142
0.20147
0.158554
0.119951
0.0875383
0.199842
0.168187
0.199821
0.155109
0.118019
0.168177
0.117863
0.0664952
0.205419
0.151046
0.0922786
0.0220704
0.180226
0.153691
0.180251
0.141542
0.103148
0.153704
0.103112
0.0318035
0.185331
0.137215
0.0708696
-0.00902411
0.0156212
0.00838941
0.016779
0.0170695
0.0231534
0.00791509
0.0166357
0.0208975
0.0189404
0.0189458
0.024318
0.0108108
0.0108109
0.0171915
0.0232021
0.0256061
0.0276009
0.0162801
0.0187949
0.0211557
0.0265469
0.0155967
0.00835399
0.0255813
0.0231698
0.0275833
0.0162681
0.0211503
0.018769
0.0265449
0.0170325
0.0167187
0.0230939
0.0166254
0.00781744
0.0208364
0.0223815
0.0218923
0.0248237
0.0126807
0.0210329
0.0135187
0.0235148
0.0295381
0.0366686
0.0246391
0.02735
0.0313691
0.0336378
0.0380271
0.0425535
0.029949
0.0299643
0.0340914
0.0369132
0.0369306
0.0416451
0.0292927
0.0267591
0.0293624
0.0401713
0.038039
0.0369516
0.0421916
0.0294877
0.0366439
0.0267348
0.0292839
0.0293618
0.0401597
0.0369352
0.038035
0.0422035
0.0273005
0.0246142
0.0313194
0.038033
0.033617
0.0425367
0.0268159
0.0301375
0.0285298
0.03805
0.0394484
0.0380801
0.0414666
0.0467945
0.0593962
0.0488548
0.0535871
0.0556032
0.0591051
0.065375
0.067076
0.0521167
0.0521434
0.0556071
0.0632307
0.0632531
0.067733
0.0571455
0.0570778
0.0511995
0.0676443
0.0678304
0.0671055
0.0658762
0.0467995
0.0593964
0.0570558
0.0571465
0.0511937
0.0676318
0.0670896
0.0678321
0.0658817
0.0535954
0.0488251
0.0555656
0.0653683
0.0590334
0.0670188
0.0564667
0.0548677
0.056359
0.064345
0.0669402
0.0649234
0.0674617
0.0749854
0.0900154
0.0750194
0.0814855
0.0828851
0.0888878
0.0958315
0.0965485
0.0799079
0.079926
0.084006
0.0943166
0.0943335
0.0982748
0.0844688
0.0837691
0.080883
0.0974862
0.0978865
0.0960116
0.0940724
0.0750095
0.090028
0.0837538
0.084472
0.0809009
0.0974793
0.0959907
0.097891
0.0940723
0.0815186
0.0751218
0.0830063
0.0958913
0.0891315
0.0967302
0.0832645
0.0814609
0.0835044
0.0945886
0.0959573
0.0951707
0.0961635
0.107538
0.124209
0.106316
0.112709
0.112915
0.122845
0.12827
0.127748
0.111969
0.111991
0.115034
0.12842
0.128446
0.130214
0.114203
0.111316
0.108658
0.129631
0.12881
0.124376
0.121083
0.107579
0.124249
0.111309
0.114255
0.108697
0.129614
0.124339
0.128819
0.121072
0.112815
0.106655
0.113154
0.128395
0.12323
0.127974
0.111415
0.112334
0.111359
0.127994
0.124738
0.128192
0.124301
0.142522
0.158908
0.141496
0.14512
0.143724
0.158365
0.159569
0.157223
0.14674
0.146748
0.146412
0.162549
0.162489
0.160166
0.144346
0.138182
0.1336
0.160847
0.157462
0.149369
0.143179
0.14268
0.159092
0.138192
0.14437
0.133696
0.160776
0.149366
0.157386
0.143169
0.145297
0.141909
0.14395
0.159694
0.15873
0.157331
0.138929
0.145587
0.137913
0.16164
0.15025
0.160941
0.148648
0.177623
0.188603
0.177597
0.175833
0.1723
0.1903
0.183859
0.178431
0.180843
0.18065
0.175393
0.19105
0.19087
0.180444
0.172296
0.162922
0.154995
0.184934
0.175798
0.162543
0.154696
0.177782
0.188673
0.162948
0.172293
0.154955
0.184814
0.162686
0.175807
0.154875
0.176066
0.177974
0.17237
0.183838
0.1907
0.178385
0.163211
0.177429
0.16103
0.188297
0.164542
0.186738
0.16135
0.203635
0.207281
0.205182
0.196588
0.190436
0.209939
0.197548
0.189786
0.205234
0.205251
0.193435
0.207337
0.207334
0.192007
0.189922
0.177895
0.166665
0.198831
0.187299
0.17375
0.161394
0.203703
0.207299
0.177838
0.189876
0.166561
0.198822
0.173759
0.187307
0.161463
0.196553
0.205352
0.190416
0.19751
0.210034
0.189795
0.178061
0.199561
0.174509
0.204087
0.174861
0.20173
0.170436
0.210056
0.202571
0.213586
0.19797
0.189642
0.206731
0.189615
0.181234
0.209515
0.209512
0.191935
0.201198
0.2012
0.183023
0.186955
0.173698
0.160467
0.191341
0.178254
0.166362
0.153175
0.210092
0.202616
0.173695
0.186943
0.160458
0.191333
0.166374
0.17827
0.153233
0.197962
0.213642
0.189625
0.18962
0.20676
0.181231
0.174341
0.202613
0.169616
0.197206
0.166927
0.194482
0.162182
0.19126
0.19544
0.17844
0.171043
0.189128
0.189208
0.172101
0.168104
0.158856
0.146758
0.19125
0.158826
0.168114
0.146753
0.178426
0.195413
0.171012
0.159023
0.183025
0.15498
0.0662009
0.058341
0.0472696
0.0694998
0.0674235
0.0686867
0.067825
0.0663695
0.0664098
0.0438363
0.071736
0.0703339
0.0703389
0.0679226
0.0770644
0.0661475
0.0438832
0.0758019
0.0730641
0.0724496
0.0701526
0.0582846
0.0661997
0.0472141
0.0694743
0.0686701
0.0673832
0.0677793
0.0661126
0.077093
0.0438776
0.0758127
0.072438
0.0730594
0.070149
0.0771011
0.0771511
0.0483491
0.078947
0.0750585
0.0750664
0.0724898
0.0555249
0.0741546
0.0499662
0.0707991
0.0700772
0.0705334
0.0694113
0.0593851
0.0868636
0.0500637
0.0768594
0.0730049
0.0755256
0.0720193
0.0697549
0.0898014
0.0584432
0.0791674
0.0757023
0.0775314
0.0746393
0.0846063
0.0847432
0.0824857
0.0969699
0.0946673
0.0958665
0.0950835
0.087283
0.0873052
0.0823443
0.0977882
0.0968152
0.0968058
0.0948184
0.0903095
0.0885519
0.083931
0.0987287
0.0973992
0.0970702
0.0958092
0.0847426
0.0846793
0.0825416
0.0969665
0.0958303
0.094715
0.0950867
0.0885501
0.0903797
0.0839676
0.0987076
0.0970474
0.0973115
0.0957329
0.0924122
0.09246
0.0868201
0.100069
0.0987454
0.0987335
0.0974678
0.085206
0.0879879
0.0841109
0.0966468
0.0961211
0.0965647
0.0957366
0.0881559
0.0932796
0.086348
0.098887
0.0972211
0.0983303
0.096624
0.0923818
0.0962371
0.0902661
0.10066
0.0993918
0.100052
0.0989119
0.109098
0.109473
0.108211
0.123989
0.120829
0.120223
0.118564
0.110083
0.1101
0.107404
0.122475
0.119908
0.119877
0.116599
0.109134
0.108652
0.107082
0.118607
0.116778
0.116003
0.114561
0.109491
0.109202
0.108317
0.124035
0.120208
0.12091
0.11859
0.108677
0.109212
0.107153
0.118581
0.116006
0.11673
0.114491
0.109239
0.109279
0.107987
0.115804
0.114688
0.114625
0.113834
0.108778
0.110252
0.108289
0.121103
0.117945
0.120577
0.117272
0.108285
0.109733
0.107762
0.116562
0.11454
0.116016
0.114041
0.109634
0.110443
0.10928
0.114988
0.114419
0.114649
0.11418
0.13348
0.131034
0.128526
0.147672
0.143132
0.138602
0.134935
0.129977
0.129997
0.125168
0.142361
0.136335
0.136332
0.129673
0.124324
0.122978
0.120754
0.131453
0.127968
0.125573
0.122559
0.131097
0.133547
0.128611
0.147629
0.138552
0.143146
0.134846
0.122979
0.12438
0.120751
0.131466
0.125697
0.127881
0.122622
0.119531
0.119511
0.118219
0.122121
0.119469
0.119455
0.117266
0.127034
0.131694
0.125956
0.140729
0.131914
0.139303
0.130408
0.120154
0.122565
0.119473
0.125874
0.121012
0.1248
0.119986
0.118304
0.118821
0.117966
0.118353
0.116495
0.117617
0.115936
0.154759
0.147229
0.141456
0.160496
0.155178
0.148374
0.142718
0.143633
0.143554
0.133569
0.152641
0.146173
0.146272
0.134555
0.130349
0.126813
0.122096
0.136832
0.129357
0.123423
0.116385
0.147207
0.154819
0.141356
0.160321
0.148394
0.155048
0.142753
0.126749
0.130215
0.121964
0.136863
0.12363
0.12937
0.116509
0.117014
0.116856
0.113459
0.114222
0.107133
0.107148
0.101142
0.136626
0.148342
0.134216
0.151327
0.13809
0.149441
0.135042
0.119386
0.124665
0.118022
0.12336
0.111404
0.12079
0.108791
0.111916
0.113525
0.110797
0.103637
0.0980551
0.102113
0.0963076
0.166908
0.153124
0.14427
0.168801
0.162105
0.147501
0.137212
0.145523
0.145429
0.13043
0.157083
0.140651
0.140625
0.122219
0.125876
0.120195
0.110454
0.125803
0.113632
0.104868
0.0917993
0.153
0.166884
0.144197
0.168838
0.147562
0.162265
0.137305
0.120191
0.125744
0.110382
0.125817
0.105046
0.113726
0.0919628
0.0951843
0.0949504
0.0852329
0.0879382
0.0724588
0.0725178
0.0527857
0.134897
0.154864
0.131442
0.153497
0.12795
0.149648
0.123438
0.103212
0.116501
0.0994636
0.105002
0.082534
0.10106
0.0771127
0.08128
0.0847436
0.078236
0.0618002
0.0416958
0.0590036
0.0377933
0.161276
0.144241
0.132029
0.161028
0.154378
0.136652
0.12351
0.135972
0.13588
0.114023
0.147833
0.128135
0.128134
0.1039
0.103651
0.0928515
0.0748599
0.109281
0.0932129
0.0788367
0.057415
0.144254
0.161285
0.131948
0.161067
0.136729
0.154427
0.123578
0.092706
0.103394
0.0744484
0.109359
0.0790421
0.0933093
0.0581249
0.0421197
0.0414253
0.0143033
0.0509354
0.0100464
0.00973912
-0.0677806
0.120681
0.146333
0.115081
0.144053
0.111172
0.139175
0.105613
0.0621403
0.0849962
0.0509461
0.0829985
0.0307336
0.0754281
0.0222376
-0.0065473
0.0138716
-0.050105
0.0502683
-0.0762111
0.0105598
-0.137614
0.147882
0.131123
0.118302
0.122966
0.122951
0.0986529
0.088661
0.0736328
0.0454998
0.13114
0.147835
0.118247
0.0735384
0.0886522
0.0455545
0.0661408
0.0670838
-0.0500481
0.106148
0.132634
0.103747
0.0154393
0.0589518
0.066369
-0.0233951
-0.026059
-0.0897198
-0.0806993
-0.0838324
-0.0700679
-0.0348267
-0.22824
-0.0825217
-0.0980377
-0.0658591
-0.0247619
-0.0253014
-0.0191215
-0.0911914
-0.0398741
-0.092587
-0.0279406
-0.170203
-0.086778
-0.0246575
-0.182558
0.173174
0.176343
0.162673
0.15591
0.170547
0.170651
0.1565
0.163692
0.153703
0.148496
0.138872
0.173147
0.163744
0.148458
0.153721
0.138853
0.162657
0.176344
0.155906
0.167342
0.14856
0.165521
0.144785
0.144454
0.139603
0.12632
0.114474
0.134477
0.118569
0.11865
0.0965987
0.101017
0.0860663
0.0739283
0.144483
0.126306
0.139582
0.114452
0.101004
0.0738008
0.0861415
0.131257
0.107282
0.126621
-0.0404357
-0.100141
-0.0788315
-0.0796765
-0.0891702
-0.017753
-0.0644967
-0.0346775
-0.125205
-0.117911
-0.0759114
-0.0705643
-0.0445922
-0.0384596
-0.0481946
-0.0855858
-0.0460447
0.0240653
-0.087191
0.00277171
-0.0528158
-0.0309994
-0.0787594
-0.0310199
-0.0607864
-0.0255093
-0.00460977
-0.0877152
-0.0614476
-0.071593
-0.137248
-0.133343
-0.0922835
-0.129734
-0.0909223
-0.080129
-0.0485392
-0.0115704
-0.118562
-0.0603689
-0.0597946
-0.0142599
-0.142395
-0.13624
-0.0836484
-0.138051
-0.0611392
-0.0568824
-0.0981164
-0.172666
-0.105751
-0.155789
-0.111834
-0.0870278
-0.0634557
-0.164736
-0.0956771
-0.135325
-0.167647
-0.112084
-0.0969907
-0.238806
-0.0952886
-0.174079
-0.0909958
-0.159545
-0.176392
-0.173668
-0.158927
-0.0510349
-0.11299
-0.0971268
-0.14683
-0.144362
-0.1477
-0.144942
-0.168881
-0.0725889
-0.0601579
-0.159859
-0.0582668
-0.135125
-0.161147
-0.0904135
-0.148911
-0.0732609
-0.148869
-0.141964
-0.0896726
-0.199329
-0.174915
-0.169297
-0.161037
-0.0529087
-0.136248
-0.102979
-0.104732
-0.0800179
-0.0746608
-0.192264
-0.132572
-0.143964
-0.126922
-0.160638
-0.102619
-0.0887407
-0.097997
-0.154219
-0.0400837
-0.127828
-0.117868
-0.0844751
-0.104807
-0.134782
-0.0505413
-0.0743265
-0.0380732
-0.0684894
-0.0767867
-0.0719398
-0.0419375
-0.060166
-0.149067
-0.145143
-0.064321
-0.119001
-0.150223
-0.0870011
-0.149757
-0.0710548
0.0422677
0.042258
0.0294403
-0.00869286
-0.00789581
0.100172
0.0708742
0.0594802
0.0203835
-0.0976789
-0.115701
-0.0462425
-0.137034
-0.0981533
-0.139444
-0.11555
-0.0748753
-0.0677309
-0.107316
-0.129229
-0.0924513
-0.124978
-0.0844844
-0.117874
-0.0946056
-0.124589
-0.130842
-0.0981888
-0.12051
-0.0097526
-0.105132
-0.0836397
0.0885178
-0.119084
-0.0230719
-0.0228774
-0.0280167
-0.027757
0.0428903
0.00740288
-0.031681
0.0446815
-0.0375785
0.067239
-0.0311016
-0.00638403
-0.0760082
0.0373581
0.0234758
-0.0568657
0.0615731
-0.0473049
-0.0959688
-0.101945
-0.0899229
-0.0141954
-0.204373
-0.0385775
-0.15814
-0.0936071
-0.11464
-0.170548
-0.0806688
-0.152143
0.0188032
-0.0704331
-0.110448
-0.056529
-0.152949
-0.106803
-0.0461798
-0.138183
-0.0164288
-0.186454
-0.0652265
-0.0584874
-0.16514
-0.0265032
-0.199911
-0.185416
-0.0384567
-0.0970264
-0.0507862
-0.010987
-0.073049
-0.144064
-0.195738
-0.0237855
-0.0836626
-0.088034
-0.0595038
-0.0321427
-0.0218626
-0.0687079
-0.14182
0.0010813
-0.0416452
-0.028829
-0.050924
-0.042028
-0.0285423
-0.0512416
-0.0172951
0.00656222
-0.0241861
-0.0640953
-0.0936772
-0.0822957
-0.0829111
-0.00212003
0.0959689
-0.059097
-0.0201166
0.0308226
0.0358157
-0.0366177
-0.0990763
0.0812882
-0.0226696
0.00917032
-0.0534602
0.020696
-0.0467498
-0.00294171
0.0128053
-0.0393665
-0.0139896
0.0791036
-0.119918
-0.0472601
-0.00415272
0.0125467
-0.0403558
-0.0132716
0.0797409
-0.120092
-0.0480236
-0.00542723
0.04722
-0.0196227
-0.0782069
-0.0698496
0.0510006
0.062856
0.0593875
0.0267383
-0.0477077
-0.0779724
-0.15437
-0.175343
-0.17948
-0.18813
-0.185534
-0.193402
-0.206962
-0.187997
-0.187902
-0.200606
-0.159496
-0.160162
-0.170849
-0.149345
-0.193973
-0.217126
-0.143922
-0.141524
-0.179813
-0.186811
-0.199022
-0.150042
-0.167509
-0.173474
-0.170768
-0.254285
-0.296771
-0.142863
-0.151016
-0.154846
-0.150774
-0.156155
-0.150079
-0.156309
-0.168079
-0.14135
-0.150787
-0.155663
-0.136916
-0.193504
-0.213138
-0.15276
-0.140613
-0.164709
-0.178483
-0.146793
-0.151673
-0.161866
-0.167764
-0.172883
-0.181104
-0.144035
-0.167816
-0.182319
-0.150452
-0.154804
-0.164801
-0.147218
-0.147733
-0.157535
-0.160248
-0.161155
-0.173479
-0.17186
-0.137967
-0.140332
-0.14158
-0.20143
-0.174566
-0.214501
-0.23532
-0.184226
-0.176523
-0.181652
-0.180301
-0.192384
-0.189833
-0.171515
-0.156284
-0.207989
-0.238232
-0.161289
-0.160306
-0.165229
-0.183854
-0.191891
-0.203508
-0.168199
-0.172838
-0.185896
-0.165715
-0.213727
-0.238724
-0.166304
-0.167651
-0.175101
-0.158704
-0.174951
-0.184566
-0.145318
-0.153777
-0.16207
-0.167476
-0.204223
-0.228963
-0.151338
-0.167393
-0.178891
-0.129832
-0.126383
-0.13433
-0.155424
-0.15862
-0.165148
-0.162137
-0.168157
-0.1772
-0.1499
-0.18905
-0.207416
-0.17808
-0.220458
-0.245025
-0.16028
-0.190819
-0.205837
-0.196422
-0.205838
-0.221236
-0.125754
-0.121657
-0.12732
-0.162695
-0.16758
-0.180583
-0.15254
-0.160986
-0.169569
-0.150368
-0.152958
-0.16165
-0.164797
-0.166538
-0.178644
-0.123737
-0.121877
-0.128325
-0.163856
-0.178194
-0.185895
-0.162812
-0.241319
-0.278573
-0.150135
-0.165205
-0.172152
-0.127145
-0.125702
-0.133188
-0.127315
-0.125465
-0.132043
-0.152701
-0.158191
-0.171979
-0.128331
-0.130985
-0.142976
-0.0912241
-0.0851697
-0.0913268
-0.15774
-0.168472
-0.176827
-0.139736
-0.141019
-0.141385
-0.146846
-0.158968
-0.167106
-0.16645
-0.188263
-0.200872
-0.174476
-0.275905
-0.338482
-0.114596
-0.123863
-0.126233
-0.161236
-0.234011
-0.263893
-0.144492
-0.1645
-0.17198
-0.119173
-0.130366
-0.132446
-0.157487
-0.267368
-0.332259
-0.123993
-0.130539
-0.140269
-0.122693
-0.123472
-0.131367
-0.115601
-0.122384
-0.130781
-0.0812367
-0.0767164
-0.080032
-0.150499
-0.144094
-0.158322
-0.16883
-0.147732
-0.16058
-0.174659
-0.142505
-0.152669
-0.16538
-0.134528
-0.143913
-0.156427
-0.146702
-0.158118
-0.173165
0.0309564
-0.0609001
0.0721277
0.0210471
0.0326276
-0.0120137
0.0721587
0.0205555
0.0328861
-0.0117106
0.0612149
0.00590025
-0.000568853
0.0557351
-0.00695561
0.00640009
-0.0216653
-0.045773
-0.0457222
-0.0141014
-0.0331553
-0.027529
0.0080503
0.0788412
0.060307
-0.0752596
-0.0774381
-0.0765977
-0.101958
-0.0550297
-0.0101584
-0.0697561
-0.072859
-0.0538522
-0.0522282
-0.0162931
-0.0561849
-0.0222482
-0.0686874
-0.0297578
-0.0337906
-0.0304092
-0.018492
-0.0453538
0.00397626
-0.0791539
-0.0829584
-0.0904681
-0.101
-0.10241
-0.0987468
-0.109514
-0.110996
-0.124024
-0.107071
0.0209693
0.0473657
0.0567083
0.0684509
0.0736159
0.029955
0.0234841
0.0261494
0.0259211
0.0270095
0.0546711
0.0772059
0.0941303
0.100364
0.0961651
0.0807119
0.088221
0.0945917
0.0981252
0.0988661
0.111551
0.110303
0.109975
0.110704
0.111539
0.145447
0.132487
0.123267
0.119222
0.118605
0.178182
0.150603
0.126725
0.114681
0.110539
0.201425
0.158496
0.119946
0.0876428
0.0747809
0.205381
0.151015
0.0922603
0.0223836
0.0595012
0.185322
0.137202
0.0708039
-0.0452644
-0.0617075
0.0219338
0.0224339
0.0248714
0.012747
0.0135594
0.0210549
0.0235378
0.0301483
0.0268638
0.0285781
0.038075
0.0381037
0.0394355
0.0414784
0.0548787
0.0564639
0.0563461
0.0644269
0.0649983
0.0670165
0.0675413
0.0813003
0.0831083
0.0833199
0.0943512
0.0949679
0.0958495
0.0960467
0.112025
0.111222
0.111135
0.127624
0.127889
0.124637
0.124174
0.145229
0.138789
0.137783
0.161387
0.160763
0.150275
0.148601
0.177166
0.16325
0.161019
0.188296
0.186729
0.164629
0.161495
0.199484
0.178005
0.174396
0.204068
0.201739
0.174898
0.170441
0.20261
0.174381
0.169651
0.197166
0.194484
0.166944
0.162203
0.183044
0.159053
0.15503
0.0741178
0.0556247
0.0500922
0.070871
0.0705838
0.0701575
0.069468
0.0869393
0.0594283
0.0501012
0.0768927
0.0755334
0.073017
0.0720182
0.0897872
0.0697947
0.0584493
0.0791865
0.0775438
0.0757267
0.0746515
0.0839889
0.0840045
0.0718438
0.0795096
0.0780828
0.0780894
0.0770405
0.0878091
0.085051
0.0839369
0.0965788
0.0964917
0.0961041
0.0956458
0.093196
0.0880907
0.0862994
0.0989856
0.0983902
0.0973458
0.0967799
0.0961687
0.0923866
0.0902431
0.100707
0.100164
0.0994028
0.0989622
0.0966223
0.0966403
0.0943576
0.10173
0.101292
0.101266
0.100872
0.110064
0.108579
0.108103
0.121011
0.120479
0.117923
0.117228
0.109496
0.108051
0.10754
0.116582
0.115965
0.114598
0.114037
0.110309
0.109559
0.109191
0.115105
0.114775
0.114439
0.114237
0.111249
0.111255
0.110973
0.115323
0.115248
0.115183
0.115142
0.131583
0.126896
0.125895
0.1407
0.139267
0.131985
0.130487
0.122544
0.120014
0.119441
0.125921
0.124844
0.120873
0.119834
0.118828
0.118251
0.117918
0.11829
0.117515
0.116559
0.116012
0.118402
0.118415
0.118231
0.11623
0.11599
0.115942
0.115554
0.148305
0.136638
0.134269
0.151242
0.149445
0.137985
0.13497
0.124887
0.119515
0.118211
0.123268
0.120616
0.111339
0.108756
0.113558
0.111838
0.110813
0.103554
0.102055
0.0978267
0.0962351
0.110058
0.11
0.109395
0.0955039
0.0949576
0.0947629
0.0932589
0.154751
0.134951
0.13148
0.153387
0.149534
0.127846
0.123331
0.116516
0.103201
0.0994738
0.104843
0.100506
0.0823491
0.0772618
0.0850909
0.0809221
0.078219
0.0614411
0.0595717
0.0418857
0.0380236
0.0745425
0.0744167
0.0737231
0.0367789
0.0181753
0.0182447
0.00549754
0.146389
0.120683
0.11525
0.143939
0.139075
0.111052
0.105548
0.0855046
0.0625015
0.0513469
0.0827526
0.0753013
0.0308851
0.0218192
0.0131961
-0.00774164
-0.0503031
0.0505781
0.0100855
-0.0756086
-0.139055
-0.00513
-0.00487252
-0.0214921
-0.0639723
0.132666
0.106206
0.103974
0.0589688
0.0154548
0.0667369
-0.0235261
-0.0956287
-0.0989626
-0.0257279
-0.0904435
-0.0808886
-0.11873
-0.0840171
-0.0710031
-0.0346122
-0.114434
-0.0629509
0.00259105
-0.0255521
-0.0433488
-0.0211093
-0.0332392
-0.0698053
-0.0628637
0.00295088
-0.0255996
-0.0437658
-0.0210137
-0.0332214
-0.0709221
-0.0554857
-0.0169972
-0.0170997
-0.0731318
-0.0121934
-0.0628752
-0.0625525
-0.0899989
-0.0489059
-0.154014
-0.148706
-0.0561517
-0.0561284
-0.0737048
-0.0575923
-0.0394335
-0.0875915
-0.0733339
-0.0569462
-0.0397919
-0.0900693
-0.0747676
-0.101266
-0.0997732
-0.150141
-0.0195977
-0.0915571
-0.0397895
-0.0932301
-0.0278364
-0.171187
-0.107018
-0.0841971
-0.184671
-0.0663557
-0.0260502
-0.170373
-0.0851087
-0.0245539
-0.18771
-0.18919
0.167324
0.165526
0.148551
0.144785
0.131171
0.126554
0.107209
-0.0503399
-0.0175137
-0.0344326
-0.0638213
-0.106308
-0.0440607
-0.0380689
-0.0452729
-0.0807331
-0.0735983
-0.127041
-0.0853042
-0.0601222
-0.00300279
-0.00255874
-0.00684569
-0.0578439
-0.0364651
-0.0366837
0.0242055
-0.0092042
-0.0867513
0.00212338
-0.0320466
-0.0530661
-0.078965
-0.16215
-0.172945
-0.215798
-0.0313271
-0.0620305
-0.0252326
-0.106358
-0.00488277
-0.0884126
-0.0613675
-0.0714266
-0.139978
-0.093581
-0.133585
-0.130354
-0.0910656
-0.0799941
-0.10734
-0.120371
-0.116294
-0.119687
-0.116667
-0.0784115
-0.14134
-0.13703
-0.110647
-0.0852238
-0.13804
-0.113795
-0.0628638
-0.0566354
-0.134032
-0.0998173
-0.119601
-0.134353
-0.0811658
-0.019359
-0.0644779
-0.065066
-0.0534181
-0.0534036
-0.0650503
-0.0511628
-0.0636857
-0.0704574
-0.070593
-0.0679473
-0.0575773
-0.0575318
-0.065138
-0.0606362
-0.0497793
-0.0684892
-0.0425358
-0.0660403
-0.0707237
-0.0651123
-0.0606839
-0.0492931
-0.069054
-0.0424429
-0.065899
-0.0708045
-0.0543726
-0.0864466
-0.085993
-0.153203
-0.0572801
-0.0810328
-0.0810732
-0.0959021
-0.0624495
-0.0671186
-0.149678
-0.0889852
-0.132185
-0.0973282
-0.0661246
-0.0702209
-0.151829
-0.0910916
-0.132289
-0.14378
-0.143821
-0.0676299
-0.0843495
-0.0712943
-0.106688
-0.111482
-0.0761102
-0.0513271
-0.1035
-0.0719474
-0.0967809
-0.114719
-0.0812108
-0.114605
-0.156471
-0.089763
-0.0969784
-0.0627462
-0.0753724
-0.0765034
-0.110037
-0.0667687
-0.0843031
-0.0732021
-0.0690319
-0.136549
-0.0672897
-0.0846366
-0.0698865
-0.103339
-0.108675
-0.0763021
-0.0515937
-0.102621
-0.071436
-0.0986314
-0.116403
-0.0906776
-0.11243
-0.155675
-0.0918361
-0.0977286
-0.0631954
-0.0750349
-0.0746639
-0.112997
-0.0661539
-0.0852182
-0.0702734
-0.0704883
-0.0890229
-0.0896783
-0.125493
-0.100302
-0.0998294
-0.18531
-0.234507
-0.154124
-0.109902
-0.085672
-0.0612108
-0.163516
-0.0987373
-0.180884
-0.137047
-0.162647
-0.121854
-0.0965656
-0.23936
-0.109932
-0.15782
-0.0844959
-0.0886331
-0.161037
-0.0866616
-0.15467
-0.161914
-0.16806
-0.0526062
-0.100992
-0.120078
-0.144034
-0.167138
-0.0748931
-0.0609971
-0.160166
-0.0598296
-0.137369
-0.14786
-0.145275
-0.149219
-0.163436
-0.09144
-0.072059
-0.150704
-0.150695
-0.088736
-0.144541
-0.199627
-0.176807
-0.166528
-0.163346
-0.14168
-0.0977385
-0.153666
-0.220633
-0.111267
-0.0844773
-0.0711048
-0.137021
-0.0491094
-0.0719732
-0.037591
-0.0610495
-0.040678
-0.0711432
-0.0758994
-0.0590967
-0.15021
-0.140581
-0.0642321
-0.106795
-0.119742
-0.0781541
-0.196116
-0.12937
-0.143312
-0.120456
-0.0996803
-0.15857
-0.0962082
-0.0820083
-0.0959066
-0.155772
-0.0399781
-0.12854
-0.118561
-0.153361
-0.0835787
-0.121593
-0.0702841
0.100125
0.0707125
0.0592086
0.0205094
-0.096669
-0.136911
-0.0885153
-0.1324
-0.0576066
-0.0658108
-0.102559
-0.16301
-0.11689
-0.0959226
-0.124399
-0.133988
-0.0980397
-0.0823661
-0.122684
-0.0381958
-0.134132
-0.144197
-0.0409353
-0.046256
-0.0430919
-0.0862561
-0.108523
-0.106584
-0.1228
-0.00807538
-0.217643
-0.166327
-0.186619
-0.105761
-0.0856444
-0.215735
-0.165319
-0.179318
0.060985
0.0236779
0.0102129
0.010147
0.0139591
0.0430117
0.0430769
0.00737187
0.0446327
-0.0322825
-0.0374557
0.0668528
-0.0310481
-0.00664719
-0.0758755
0.0374129
0.0229561
-0.0573062
0.0616993
-0.0474643
-0.0957197
-0.0362708
-0.047813
-0.0516426
-0.0739982
-0.0133879
-0.0746283
-0.0649857
-0.0281548
-0.068074
-0.0706816
-0.0621847
-0.0638559
-0.06118
-0.0334518
-0.0361679
-0.0479055
-0.0514013
-0.0739805
-0.0132106
-0.0747372
-0.0650597
-0.0280634
-0.0684692
-0.0707148
-0.0618421
-0.0639504
-0.061597
-0.0332529
-0.0818154
-0.128732
-0.0190776
-0.0800513
-0.0899327
-0.0575355
-0.0814297
-0.0838848
-0.129352
-0.0190113
-0.0796978
-0.0905264
-0.0582128
-0.0821009
-0.0559164
-0.0247625
-0.102502
-0.0465066
-0.138259
-0.0163268
-0.187609
-0.164991
-0.0581248
-0.0653774
-0.0262626
-0.200798
-0.184996
-0.0388438
-0.10259
-0.0899783
-0.0153453
-0.206513
-0.0396241
-0.16183
-0.0965665
-0.0817885
-0.171401
-0.119489
-0.146263
0.0186785
-0.0678494
-0.108957
-0.095132
-0.0893937
-0.0111905
-0.144075
-0.0732569
-0.195416
-0.0235863
-0.0552313
-0.152464
-0.0843517
-0.0868238
-0.126876
-0.0604784
-0.0322827
-0.0622492
-0.159364
-0.131308
-0.0739142
-0.21943
-0.140189
0.0068308
-0.0174542
-0.0240292
-0.0639905
-0.0968333
-0.0845544
-0.0820843
0.0308126
0.0675778
0.0279701
0.00666008
0.0879421
0.0076199
0.0163861
0.0305664
0.0676561
0.0284434
0.00656242
0.0877916
0.00806955
0.0164973
-0.00128732
0.0951075
-0.0599179
-0.0195733
0.0302374
0.0369288
-0.0359845
-0.099356
0.0809179
0.00904895
-0.0220132
0.0202455
-0.0533512
-0.0467178
0.0476338
-0.00549769
-0.0195411
-0.0783258
0.052132
-0.0703905
0.0638024
0.0601193
0.0268871
-0.0470936
-0.0779006
-0.152285
-0.156267
-0.167417
-0.154796
-0.17194
-0.182612
-0.15219
-0.155578
-0.16655
-0.170713
-0.181416
-0.125741
-0.142696
-0.155306
-0.129677
-0.146109
-0.158706
-0.167283
-0.170588
-0.177793
-0.171693
-0.192989
-0.208266
-0.172952
-0.171728
-0.180917
-0.174142
-0.197489
-0.212321
-0.160485
-0.158755
-0.165217
-0.131281
-0.134827
-0.142462
-0.170193
-0.197026
-0.213579
-0.119833
-0.120209
-0.125454
-0.172448
-0.199707
-0.21611
-0.0951031
-0.103205
-0.11021
-0.14223
-0.145123
-0.153008
-0.153178
-0.149121
-0.154005
-0.135025
-0.137792
-0.144233
-0.15468
-0.151893
-0.157522
-0.122191
-0.136259
-0.149066
-0.129299
-0.15032
-0.165275
-0.110693
-0.1195
-0.12705
-0.12064
-0.133938
-0.146393
-0.151257
-0.177686
-0.196635
-0.117069
-0.12737
-0.136154
-0.103395
-0.112625
-0.119717
-0.103744
-0.107981
-0.1148
-0.105799
-0.115333
-0.123615
-0.101199
-0.105405
-0.111332
-0.105406
-0.114008
-0.121672
-0.179858
-0.184288
-0.19233
-0.174319
-0.207622
-0.229895
-0.192242
-0.187863
-0.199746
-0.186397
-0.19057
-0.19857
-0.163786
-0.202977
-0.223687
-0.151962
-0.154128
-0.165076
-0.148759
-0.146862
-0.153189
-0.190995
-0.19985
-0.213504
-0.179121
-0.18346
-0.191262
-0.212409
-0.258212
-0.287391
-0.148364
-0.152652
-0.165458
-0.171921
-0.171464
-0.184973
-0.19558
-0.126434
-0.132832
-0.134884
-0.148545
-0.208353
-0.230822
-0.164939
-0.194809
-0.193021
-0.196809
-0.146373
-0.178146
-0.201918
-0.174273
-0.179353
-0.189967
-0.198054
-0.194011
-0.198084
-0.150782
-0.177916
-0.199764
-0.170208
-0.173272
-0.18298
-0.176768
-0.175255
-0.186979
-0.178846
-0.178364
-0.190169
-0.164392
-0.184957
-0.197064
-0.169175
-0.173431
-0.188419
-0.165538
-0.170507
-0.185025
-0.14592
-0.149773
-0.16004
-0.152592
-0.170703
-0.181595
-0.147473
-0.150826
-0.16155
-0.169703
-0.180372
-0.147508
-0.151417
-0.159405
-0.138457
-0.150966
-0.160394
-0.148696
-0.152857
-0.160728
-0.124953
-0.14135
-0.153614
-0.137135
-0.149563
-0.159054
-0.139149
-0.141492
-0.148162
-0.141172
-0.153937
-0.163191
-0.146141
-0.148966
-0.156239
-0.131602
-0.148568
-0.161478
-0.136685
-0.149025
-0.158576
-0.151107
-0.178741
-0.194881
-0.138958
-0.141594
-0.150837
-0.149538
-0.174791
-0.190272
-0.158899
-0.16251
-0.169406
-0.150965
-0.155378
-0.165941
-0.12755
-0.150567
-0.163759
-0.161587
-0.163633
-0.175818
-0.145402
-0.166214
-0.178393
-0.176656
-0.186936
-0.19824
-0.137182
-0.163948
-0.179283
-0.147405
-0.147844
-0.155865
-0.144445
-0.166064
-0.17926
-0.156721
-0.164277
-0.173364
-0.134664
-0.185616
-0.20343
-0.178941
-0.183614
-0.190643
-0.163888
-0.168905
-0.173166
-0.160635
-0.175019
-0.183473
-0.163509
-0.179323
-0.188065
-0.180434
-0.181897
-0.189111
-0.175418
-0.176219
-0.18284
-0.14773
-0.151192
-0.16062
-0.16563
-0.186882
-0.199497
-0.148126
-0.151188
-0.161391
-0.164048
-0.185077
-0.197864
-0.0950806
-0.10317
-0.110122
-0.0948938
-0.102932
-0.109904
-0.0946354
-0.102269
-0.108829
-0.102962
-0.111353
-0.118987
-0.108914
-0.118558
-0.127226
-0.103956
-0.11251
-0.120226
-0.107409
-0.116779
-0.125256
-0.151336
-0.161355
-0.171972
-0.135945
-0.13545
-0.143946
-0.136328
-0.135817
-0.144285
-0.136966
-0.154362
-0.16731
-0.136617
-0.153859
-0.166769
-0.162656
-0.163371
-0.170528
-0.157368
-0.174337
-0.189114
-0.148718
-0.146863
-0.154879
-0.142088
-0.142357
-0.148775
-0.159459
-0.160603
-0.168197
-0.155658
-0.171929
-0.186055
-0.146992
-0.146515
-0.154323
-0.143731
-0.145125
-0.15196
-0.140899
-0.158028
-0.173654
-0.146796
-0.148225
-0.156092
-0.14184
-0.143119
-0.150292
-0.114919
-0.113995
-0.119061
-0.154193
-0.169606
-0.181304
-0.122492
-0.127659
-0.134291
-0.107874
-0.109704
-0.114835
-0.121372
-0.132572
-0.141136
-0.134472
-0.149516
-0.160237
-0.117287
-0.118618
-0.125713
-0.121538
-0.124255
-0.131725
-0.146899
-0.148447
-0.154488
-0.155663
-0.156562
-0.162206
-0.135304
-0.149668
-0.160457
-0.136818
-0.15371
-0.165687
-0.15645
-0.17357
-0.187461
-0.126266
-0.122558
-0.128521
-0.124946
-0.139101
-0.150492
-0.111646
-0.120758
-0.128102
-0.119402
-0.131522
-0.141309
-0.130703
-0.131107
-0.138274
-0.137744
-0.149906
-0.159476
-0.117377
-0.12264
-0.129348
-0.113312
-0.11625
-0.121998
-0.120349
-0.130684
-0.139274
-0.129587
-0.142996
-0.152873
-0.108409
-0.108048
-0.112914
-0.12621
-0.129679
-0.13795
-0.131803
-0.130419
-0.133024
-0.14634
-0.147318
-0.152109
-0.149636
-0.167174
-0.180024
-0.141944
-0.15919
-0.171547
-0.151124
-0.164627
-0.176038
-0.140982
-0.139424
-0.147805
-0.124665
-0.139625
-0.152216
-0.11153
-0.120596
-0.128137
-0.112575
-0.123331
-0.132072
-0.128182
-0.138304
-0.147624
-0.101659
-0.110239
-0.118151
-0.103211
-0.112066
-0.120127
-0.103549
-0.108282
-0.113965
-0.102379
-0.1071
-0.112793
-0.0987263
-0.101901
-0.107835
-0.107432
-0.116678
-0.124708
-0.100126
-0.103418
-0.109723
-0.106196
-0.115316
-0.123312
-0.153427
-0.154466
-0.165591
-0.194744
-0.194848
-0.209723
-0.180641
-0.188374
-0.200778
-0.158426
-0.159077
-0.169944
-0.179431
-0.189756
-0.197064
-0.155941
-0.163748
-0.168875
-0.154539
-0.197416
-0.220191
-0.155856
-0.193295
-0.210744
-0.185456
-0.183864
-0.19709
-0.15862
-0.220408
-0.256137
-0.179318
-0.181743
-0.189224
-0.145543
-0.194122
-0.222798
-0.167886