/*--------------------------------*- C++ -*----------------------------------*\
| =========                 |                                                 |
| \\      /  F ield         | OpenFOAM: The Open Source CFD Toolbox           |
|  \\    /   O peration     | Version:  2.3.1                                 |
|   \\  /    A nd           | Web:      www.OpenFOAM.org                      |
|    \\/     M anipulation  |                                                 |
\*---------------------------------------------------------------------------*/
FoamFile
{
    version     2.0;
    format      ascii;
    class       volScalarField;
    location    "40/fluid";
    object      T;
}
// * * * * * * * * * * * * * * * * * * * * * * * * * * * * * * * * * * * * * //

dimensions      [0 0 0 1 0 0 0];

internalField   nonuniform List<scalar> 
25373
(
361.034
362.185
361.032
362.96
365.462
362.181
365.461
369.276
361.228
363.111
367.235
371.811
360.21
361.601
360.208
362.616
365.812
361.594
365.81
370.722
360.416
362.802
368.092
373.971
358.954
359.739
358.952
360.661
363.974
359.734
363.971
369.813
359.172
361.092
367.087
374.318
357.318
358.443
357.315
359.659
363.974
358.437
363.97
371.534
357.599
360.206
367.946
377.476
355.064
356.584
355.062
358.277
364.118
356.582
364.114
374.303
355.436
359.005
369.441
382.218
351.943
354.039
351.944
356.409
364.403
354.048
364.404
378.421
352.416
357.398
371.74
389.263
347.554
350.485
347.569
353.74
364.775
350.505
364.785
384.421
348.139
355.124
375.049
399.875
341.37
345.364
341.372
349.674
364.891
345.371
364.913
392.852
342.081
351.593
379.315
416.227
332.941
337.921
332.941
343.262
362.975
337.92
362.984
403.089
333.752
345.74
383.008
441.274
322.588
327.794
322.589
333.462
355.722
327.795
355.732
408.258
323.363
336.15
380.775
466.826
361.12
360.784
361.194
361.237
361.293
360.852
360.9
360.958
360.977
360.976
361.053
360.63
360.629
360.712
361.187
361.41
361.788
360.692
360.86
361.094
361.539
361.118
360.781
361.409
361.185
361.785
360.69
361.093
360.857
361.537
361.234
361.191
361.29
360.897
360.849
360.954
361.547
361.24
361.638
360.889
361.227
360.902
361.326
360.299
359.69
360.376
360.438
360.502
359.779
359.806
359.905
360.141
360.14
360.233
359.55
359.548
359.653
360.397
360.672
361.157
359.624
359.822
360.141
360.777
360.295
359.686
360.671
360.393
361.153
359.622
360.139
359.818
360.774
360.433
360.371
360.497
359.801
359.774
359.899
360.807
360.432
360.923
359.827
360.235
359.85
360.372
358.985
358.238
359.117
359.071
359.249
358.388
358.341
358.543
358.872
358.87
358.984
358.104
358.103
358.234
359.159
359.534
360.38
358.201
358.443
358.873
359.855
358.981
358.234
359.533
359.156
360.377
358.199
358.871
358.44
359.852
359.067
359.112
359.243
358.338
358.382
358.537
359.607
359.206
359.788
358.447
358.947
358.486
359.154
357.361
356.332
357.536
357.482
357.713
356.534
356.471
356.739
357.205
357.204
357.355
356.15
356.148
356.326
357.599
358.097
359.234
356.281
356.609
357.193
358.518
357.358
356.327
358.094
357.596
359.23
356.279
357.19
356.605
358.512
357.477
357.523
357.705
356.464
356.514
356.729
358.175
357.644
358.414
356.604
357.281
356.657
357.558
355.122
353.699
355.353
355.283
355.595
353.961
353.886
354.249
354.911
354.909
355.119
353.45
353.45
353.701
355.447
356.137
357.684
353.632
354.08
354.901
356.711
355.115
353.69
356.134
355.443
357.678
353.631
354.902
354.078
356.709
355.275
355.33
355.585
353.875
353.93
354.236
356.235
355.497
356.558
354.054
355.005
354.126
355.383
352.016
350.012
352.308
352.234
352.657
350.336
350.268
350.763
351.728
351.729
352.028
349.688
349.693
350.049
352.472
353.452
355.573
349.94
350.56
351.731
354.22
352.003
349.996
353.454
352.471
355.574
349.947
351.735
350.564
354.221
352.22
352.27
352.642
350.249
350.294
350.747
353.557
352.501
354
350.466
351.84
350.566
352.364
347.626
344.775
347.978
347.924
348.502
345.161
345.121
345.799
347.26
347.273
347.697
344.379
344.387
344.9
348.286
349.678
352.61
344.722
345.574
347.219
350.649
347.605
344.762
349.679
348.29
352.602
344.73
347.218
345.576
350.644
347.898
347.94
348.484
345.1
345.137
345.785
349.783
348.252
350.408
345.368
347.309
345.495
348.047
341.387
337.439
341.829
341.785
342.577
337.927
337.886
338.785
340.979
340.98
341.587
337.009
337.009
337.702
342.342
344.26
348.219
337.447
338.542
340.732
345.214
341.383
337.437
344.265
342.345
348.23
337.448
340.733
338.542
345.217
341.778
341.819
342.571
337.883
337.924
338.781
344.338
342.225
345.194
338.218
340.795
338.375
341.777
332.918
327.897
333.436
333.404
334.383
328.421
328.405
329.432
332.463
332.462
333.221
327.427
327.426
328.224
334.133
336.541
341.472
327.93
329.185
331.712
336.938
332.917
327.896
336.54
334.132
341.468
327.93
331.711
329.184
336.934
333.403
333.433
334.379
328.406
328.418
329.428
336.597
333.921
337.678
328.747
331.759
328.919
332.892
322.551
323.052
323.051
324.07
322.094
322.094
322.879
323.833
326.323
331.55
322.551
326.326
323.834
331.551
323.05
323.048
324.063
326.365
323.526
327.477
360.438
361.495
362.677
359.171
359.962
361.146
362.494
362.218
362.216
364.488
360.217
361.977
361.975
364.542
365.696
366.867
369.077
363.963
365.887
367.232
369.708
361.49
360.43
362.67
359.166
361.14
359.952
362.482
366.867
365.691
369.075
363.959
367.231
365.878
369.705
372.321
372.32
375.329
370.545
373.493
373.491
376.817
363.699
361.489
364.301
360.702
363.632
361.148
364.313
370.777
367.874
371.708
367.433
371.629
368.318
372.688
377.372
375.213
378.534
375.716
379.259
376.896
380.551
359.352
360.725
362.274
357.587
358.639
360.249
362.039
361.691
361.689
364.645
359.018
361.383
361.38
364.816
366.179
367.733
370.569
364.028
366.572
368.388
371.655
360.718
359.342
362.26
357.581
360.242
358.637
362.033
367.732
366.167
370.564
364.024
368.387
366.562
371.648
374.92
374.918
378.728
372.773
376.666
376.665
381.045
363.575
360.719
364.359
359.647
363.563
360.241
364.459
372.771
368.958
373.987
368.609
374.181
369.771
375.576
381.548
378.849
383.032
379.608
384.297
381.191
386.011
357.808
359.698
361.78
355.411
356.844
359.061
361.49
361.039
361.036
365.047
357.417
360.65
360.648
365.345
367.074
369.205
372.997
364.242
367.688
370.205
374.626
359.694
357.819
361.785
355.414
359.063
356.867
361.514
369.203
367.068
372.988
364.24
370.203
367.697
374.621
378.816
378.813
383.88
376.163
381.426
381.423
387.329
363.573
359.7
364.617
358.261
363.61
359.077
364.837
375.917
370.786
377.529
370.475
378.035
372.047
379.917
387.636
384.045
389.615
385.393
391.712
387.529
394.028
355.723
358.324
361.173
352.416
354.404
357.452
360.807
360.197
360.195
365.708
355.203
359.641
359.644
366.116
368.441
371.414
376.6
364.585
369.347
372.846
378.977
358.333
355.757
361.214
352.432
357.464
354.446
360.86
371.412
368.469
376.602
364.592
372.849
369.393
378.993
384.607
384.602
391.551
381.145
388.484
388.478
396.745
363.678
358.355
365.12
356.375
363.761
357.5
365.451
380.609
373.59
382.82
373.263
383.745
375.449
386.367
396.709
391.778
399.449
394.01
402.892
397.009
406.179
352.829
356.405
360.353
348.161
350.912
355.085
359.728
358.947
358.953
366.555
351.937
358.044
358.049
366.986
370.417
374.532
381.841
364.904
371.604
376.472
385.233
356.417
352.874
360.408
348.181
355.1
350.948
359.773
374.536
370.461
381.855
364.915
376.475
371.629
385.241
393.225
393.215
403.189
388.326
399.01
398.999
411.247
363.813
356.449
365.807
353.567
363.796
355.117
366.127
387.545
377.655
390.693
377.093
392.113
380.221
395.957
410.638
403.493
414.646
407.158
420.488
411.635
425.527
348.549
353.378
358.799
341.992
345.605
351.094
357.323
356.779
356.793
367.241
346.839
354.967
354.974
367.177
372.786
378.545
389.127
364.352
373.636
380.554
393.39
353.394
348.561
358.814
341.99
351.097
345.6
357.318
378.566
372.796
389.138
364.372
380.577
373.636
393.403
406.006
406.015
421.367
397.921
414.365
414.39
434.139
363.546
353.397
366.291
349.051
362.801
351.134
366.126
397.534
383.091
402.296
381.503
403.784
386.058
409.729
433.201
421.917
439.8
427.488
449.865
434.923
458.988
341.914
347.999
355.025
333.174
337.416
343.939
351.574
352.323
352.321
366.133
338.841
348.618
348.614
363.914
373.904
381.744
397.602
360.359
372.641
381.895
400.309
347.999
341.913
355.023
333.177
343.939
337.415
351.574
381.766
373.899
397.616
360.355
381.882
372.628
400.275
423.959
424.002
450.119
407.204
434.052
434.073
497.268
361.23
348.051
364.986
341.505
358.439
343.97
362.579
410.556
388.555
418.019
383.425
416.859
389.779
426.338
469.224
451.178
488.221
446.289
518.865
466.628
567.591
332.047
338.658
346.522
343.434
343.436
359.479
368.941
379.075
400.385
338.662
332.04
346.526
379.081
368.954
400.381
423.919
423.993
494.074
353.663
338.624
358.033
419.586
388.2
420.2
474.571
499.517
527.458
522.393
522.855
517.428
503.736
561.039
505.764
546.669
516.587
507.066
504.897
470.197
506.995
481.23
501.748
476.325
535.228
531.671
523.082
557.867
317.171
317.613
317.619
318.537
316.763
316.764
317.459
317.204
318.325
320.543
325.289
317.171
317.206
320.545
318.325
325.289
317.617
317.609
318.53
317.884
320.603
318.03
321.604
321.893
325.774
331.849
339.274
327.019
336.299
336.298
351.73
348.077
361.155
371.427
321.894
331.855
325.764
339.275
348.087
371.44
361.17
329.546
346.125
331.835
471.287
516.081
498.638
498.735
514.347
454.337
487.319
468.417
565.297
552.758
510.391
506.992
484.116
478.718
544.368
563.577
483.964
453.708
500.209
450.449
476.966
461.922
491.353
491.187
499.384
492.615
479.283
513.238
507.2
538.694
556.121
566.892
554.384
555.063
553.299
539.797
493.981
469.131
510.942
485.403
485.337
464.065
565.826
565.38
536.035
565.635
547.46
532.838
551.052
551.83
528.52
542.046
546.671
535.117
522.855
555.217
554.819
552.649
567.314
542.724
562.85
559.687
552.981
565.966
538.154
564.06
553.885
549.607
566.881
542.757
562.269
548.815
559.503
563.788
567.872
562.406
551.358
530.333
544.99
550.131
542.843
563.215
558.561
531.345
542.062
527.143
547.212
553.148
539.565
556.842
553.528
551.991
536.801
517.818
556.702
539.052
555.698
535.602
546.847
559.713
549.198
539.387
563.666
556.006
532.439
546.299
522.008
549.64
512.312
535.793
525.154
512.073
537.864
528.648
514.114
534.905
508.808
542.45
517.05
515.337
542.285
517.323
546.68
544.716
519.087
557.765
553.127
556.122
564.32
562.684
393.668
393.665
402.418
421.447
421.471
350.315
373.166
380.545
416.328
562.505
550.852
543.029
558.771
518.549
557.004
539.958
551.719
513.134
537.076
556.265
514.628
537.183
509.33
542.998
518.159
548.272
546.945
520.02
541.924
521.868
530.755
528.001
451.249
483.357
475.819
475.788
465.13
465.113
457.477
483.602
484.851
472.243
506.225
469.622
502.151
487.205
476.971
458.158
462.868
493.532
455.355
489.061
480.735
536.984
524.623
511.121
533.103
516.537
524.857
545.484
524.99
540.943
518.25
534.396
504.457
513.267
519.003
508.963
529.866
524.469
505.469
519.024
502.595
524.29
513.512
511.948
533.467
508.532
529.266
527.613
509.808
523.532
502.061
494.516
501.083
511.904
520.921
494.783
541.074
527.073
530.469
521.924
512.864
531.583
521.802
509.283
445.702
438.794
466.798
445.751
438.79
466.798
444.282
419.334
448.456
494.643
524.826
515.458
502.235
476.801
457.223
478.576
483.252
463.851
466.98
494.311
469.926
442.257
468.688
455.974
459.496
448.97
480.558
445.583
439.482
465.12
437.768
424.154
460.744
443.041
445.651
439.51
465.131
437.764
424.206
460.685
443.055
444.771
422.058
448.564
446.45
442.639
422.907
421.226
403.239
410.691
425.731
436.01
578.633
577.995
586.424
595.293
574.508
584.292
594.548
574.656
584.355
594.562
574.314
584.13
594.469
575.016
584.566
594.64
576.941
585.81
575.435
584.867
594.762
574.741
584.38
594.594
574.192
584.037
594.47
575.223
584.702
594.72
573.083
583.431
574.002
583.991
594.451
575.565
584.937
594.809
574.043
583.946
594.426
578.383
577.394
586.049
595.163
576.772
585.682
595.031
577.867
586.343
595.264
577.512
586.129
595.193
576.953
585.792
595.081
574.156
584.047
594.446
574.871
584.538
594.631
577.289
576.723
585.66
595.033
576.711
576.066
585.276
594.906
574.747
584.447
574.426
584.216
594.516
575.441
576.105
574.682
584.345
594.548
575.74
585.033
594.809
575.206
584.704
594.684
574.74
584.445
594.604
575.775
585.006
594.796
576.788
585.643
595.027
576.068
585.192
594.858
575.967
585.198
594.872
577.107
585.846
595.082
576.822
585.701
595.044
576.501
585.56
594.999
577.443
586.087
595.167
577.37
586
595.144
576.668
585.583
595.009
576.122
585.223
594.855
576.196
585.291
594.884
575.158
584.67
594.669
575.538
584.895
594.739
575.523
584.898
594.748
573.759
583.902
594.441
573.608
583.708
594.352
573.675
583.765
594.379
573.036
583.379
594.221
574.462
584.227
594.539
573.385
583.566
594.304
574.216
584.087
594.492
572.596
583.054
594.099
572.818
583.234
594.182
572.594
583.093
594.13
572.164
582.829
594.026
572.11
582.805
594.005
574.232
584.208
594.56
574.606
584.333
594.599
573.303
583.6
594.334
573.674
583.626
594.3
573.263
583.38
594.221
575.175
584.686
594.703
574.025
583.923
594.422
573.13
583.416
594.266
573.394
583.627
594.37
571.986
582.636
593.97
572.452
583.018
594.105
573.059
583.413
594.273
572.592
583.013
594.104
571.105
582.152
593.753
572.148
571.864
582.724
594.035
571.886
582.655
593.976
572.088
582.782
594.031
571.478
582.388
593.878
571.172
582.134
593.745
421.796
530.295
417.553
442.155
434.957
464.521
417.548
442.227
434.943
464.529
411.109
440.27
444.558
414.311
469.282
451.267
477.074
498.806
498.874
466.15
486.916
482.924
432.402
398.6
405.664
556.258
555.545
550.558
558.753
524.493
512.303
537.718
548.244
539.197
539.268
518.029
536.883
508.286
542.986
513.684
519.441
517.47
500.902
514.838
493.307
571.467
571.405
582.363
571.221
582.233
571.392
582.314
572.508
583.076
571.427
361.231
363.117
367.238
371.811
374.792
360.421
362.812
368.098
373.97
377.79
359.178
361.102
367.096
374.319
379.492
357.612
360.216
367.97
377.48
384.535
355.459
358.981
369.444
382.227
391.621
352.453
357.358
371.688
389.277
402.174
348.175
355.094
375.003
399.894
418.601
342.09
351.602
379.325
416.214
446.317
333.756
345.743
383.021
441.288
481.355
323.367
336.164
380.762
483.941
553.304
361.243
361.55
361.642
360.893
360.906
361.231
361.331
360.437
360.814
360.93
359.832
359.856
360.243
360.38
359.212
359.614
359.796
358.454
358.493
358.955
359.162
357.657
358.183
358.422
356.623
356.676
357.283
357.561
355.521
356.234
356.561
354.085
354.157
355.003
355.388
352.537
353.55
354.001
350.505
350.601
351.825
352.355
348.285
349.771
350.396
345.389
345.516
347.311
348.052
342.235
344.349
345.215
338.222
338.382
340.801
341.791
333.927
336.603
337.691
328.75
328.923
331.768
332.904
323.53
326.377
327.486
361.503
363.71
364.317
360.715
361.163
363.653
364.337
367.887
370.781
371.714
367.453
368.346
371.638
372.701
375.216
377.371
378.536
375.719
376.903
379.256
380.553
380.74
380.739
382.033
381.84
383.211
383.21
384.621
360.729
363.599
364.383
359.637
360.23
363.559
364.457
368.991
372.784
374.007
368.623
369.787
374.197
375.599
378.857
381.545
383.035
379.613
381.202
384.294
386.014
386.102
386.101
387.711
387.744
389.55
389.549
391.4
359.678
363.552
364.589
358.229
359.053
363.571
364.795
370.781
375.936
377.542
370.448
372.012
378.041
379.913
384.051
387.638
389.618
385.403
387.53
391.716
394.024
393.707
393.706
395.844
396.355
398.78
398.783
401.264
358.329
363.624
365.076
356.33
357.471
363.702
365.421
373.537
380.604
382.811
373.198
375.4
383.724
386.349
391.789
396.713
399.446
394.026
397.024
402.894
406.181
405.043
405.052
407.978
409.417
412.875
412.885
416.411
356.429
363.77
365.786
353.564
355.124
363.778
366.131
377.627
387.519
390.669
377.082
380.229
392.1
395.953
403.513
410.646
414.663
407.168
411.65
420.506
425.546
422.859
422.862
427.23
430.502
435.925
435.929
441.52
353.421
363.546
366.306
349.057
351.154
362.81
366.142
383.115
397.535
402.304
381.52
386.08
403.803
409.751
421.912
433.219
439.801
427.483
434.924
449.894
458.993
453.598
453.608
461.175
467.91
483.879
483.87
502.675
348.07
361.23
364.993
341.512
343.987
358.437
362.58
388.564
410.575
418.027
383.421
389.761
416.875
426.307
451.202
469.286
488.249
446.242
466.648
519.171
567.57
501.924
501.902
525.99
540.205
338.635
353.669
358.027
388.151
419.626
420.231
474.595
537.636
537.457
499.552
527.508
522.408
563.457
522.898
517.466
503.76
563.331
543.482
498.239
513.565
524.297
509.644
519.788
551.46
543.468
498.199
513.557
524.241
509.626
519.7
551.452
548.847
521.738
521.749
567.349
517.57
560.28
560.25
557.113
518.012
568.383
568.283
527.174
527.157
561.848
540.15
532.797
567.743
561.841
540.072
532.722
567.744
565.848
573.258
573.523
529.858
470.2
507.045
481.227
501.713
476.299
535.258
528.581
505.82
567.256
516.615
507.146
553.835
531.685
523.18
557.828
567.118
317.889
318.033
320.614
321.613
329.569
331.852
346.157
502.025
454.307
468.376
487.297
537.892
484.074
478.656
544.499
535.772
510.39
557.865
563.922
524.266
491.203
491.181
498.069
502.157
510.648
510.602
453.677
466.792
500.109
450.434
461.91
476.936
491.289
565.321
565.114
561.261
491.21
499.464
492.678
557.311
479.32
513.247
507.192
538.716
556.162
554.39
566.932
555.085
553.285
539.836
557.177
568.543
567.816
568.5
567.823
549.989
565.971
565.204
566.954
536.058
565.584
549.464
547.477
532.901
552.94
551.071
549.364
552.917
541.902
534.188
555.398
555.281
538.031
538.009
560.666
546.877
549.509
566.32
566.301
565.376
548.199
548.202
544.284
558.813
541.819
563.842
540.533
562.622
545.575
544.33
558.846
541.798
563.906
540.542
562.787
545.596
555.73
548.222
548.23
571.015
538.341
563.63
563.635
559.835
561.062
556.23
570.213
547.154
566.726
559.86
561.064
556.238
570.229
547.148
566.932
569.242
572.885
554.295
564.932
559.401
568.984
567.816
556.403
539.019
554.187
555.195
552.584
568.51
562.7
566.522
571.5
564.694
542.721
536.313
548.274
552.605
549.89
559.877
567.011
563.004
561.875
572.601
554.29
564.967
559.379
568.983
567.674
556.299
538.899
554.246
555.078
552.413
568.453
562.742
566.498
571.434
564.604
542.625
536.188
548.076
552.606
549.501
559.772
567.02
563.086
561.946
569.376
569.294
575.028
572.762
572.761
551.934
561.143
541.909
546.431
534.911
522.774
555.222
554.937
559.168
552.78
567.425
542.972
562.664
559.439
547.035
563.19
553.051
554.85
566.095
538.299
564.117
549.599
566.76
542.669
548.571
562.095
562.256
551.397
530.387
544.923
550.042
543.132
563.28
559.568
563.889
568.105
558.511
531.308
527.155
542.317
547.165
539.279
553.287
556.884
553.526
552.097
559.255
563.004
554.99
536.185
555.406
538.637
512.057
506.957
528.655
514.013
535.062
508.814
542.166
542.459
515.35
517.068
517.214
546.579
544.502
519.048
555.909
565.55
546.862
559.666
549.239
539.494
563.957
552.606
555.93
522.098
546.397
532.421
549.696
512.297
535.988
525.193
553.109
556
564.154
562.823
350.33
373.195
380.543
416.33
514.546
537.514
509.372
542.864
551.654
513.001
537.09
559
539.832
518.08
548.178
546.901
519.935
562.504
550.959
543.205
556.42
548.509
527.994
552.501
551.786
562.166
536.181
536.028
542.098
522.078
549.771
546.489
558.446
530.977
528.195
549.43
546.093
558.251
479.001
484.421
499.34
499.342
496.021
481.701
481.698
483.629
472.249
484.89
506.277
469.639
502.207
487.231
476.972
458.172
462.881
493.549
455.355
489.069
480.744
527.395
529.704
536.792
547.469
525.266
533.103
540.861
529.861
550.146
536.646
544.733
535.445
543.47
530.872
527.392
529.703
536.783
547.442
525.262
533.085
540.839
529.863
550.135
536.627
544.74
535.434
543.459
530.869
545.564
536.997
522.148
539.912
529.878
532.549
553.119
545.536
537.013
522.129
539.945
529.841
532.533
553.354
508.94
504.855
524.444
505.441
518.986
502.553
524.247
533.515
511.955
513.524
508.555
529.315
527.676
509.84
536.849
524.613
511.087
533.196
516.447
524.865
545.678
518.379
541.279
525.214
534.473
504.512
513.289
519.145
523.531
514.336
494.451
511.899
501.026
520.876
494.727
546.821
543.329
541.089
527.156
532.914
530.476
521.944
547.441
543.059
532.942
531.806
539.498
521.938
419.324
444.237
448.428
494.612
524.872
502.222
515.456
474.16
469.389
480.735
493.014
468.208
489.737
476.767
474.143
469.385
480.701
493.005
468.199
489.688
476.758
476.818
457.265
478.612
483.3
463.869
467.004
494.347
469.921
442.223
455.974
468.669
448.957
459.494
480.542
422.059
444.837
448.593
446.489
422.884
442.691
421.227
403.245
410.728
425.717
435.99
578.899
586.966
595.472
578.587
586.779
595.413
578.925
586.983
595.481
586.822
595.434
579.387
587.285
595.595
579.454
587.334
595.615
578.145
586.532
595.34
578.017
586.471
595.327
577.485
586.105
595.187
577.952
586.408
595.293
577.627
586.23
595.245
577.767
586.277
595.227
577.33
585.986
595.119
577.794
586.251
595.2
577.37
586.026
595.134
581.567
588.633
596.064
577.993
586.414
595.283
578.342
586.678
595.401
578.085
586.435
595.275
578.35
586.658
595.384
580.175
587.742
595.727
578.263
586.602
595.349
581.076
588.338
595.957
580.162
587.735
595.728
578.479
586.736
595.402
581.215
588.436
596.004
580.491
587.947
595.806
581.391
588.499
596.002
581.857
588.787
596.12
581.61
588.625
596.048
582.218
589.067
596.243
577.079
585.856
595.092
576.936
585.783
595.083
574.597
584.375
594.593
574.741
584.456
594.624
575.474
584.892
594.774
574.732
584.431
594.593
576.927
585.805
595.076
575.374
584.824
594.742
577.091
585.882
595.101
577.209
585.951
595.145
595.078
574.502
584.233
594.535
574.186
584.176
594.548
575.772
585.067
594.86
574.414
584.192
594.527
594.256
576.685
585.574
594.984
576.13
585.256
594.877
576.563
585.557
594.999
576.614
585.538
594.97
576.149
585.292
594.898
576.456
585.457
594.941
575.628
585.009
594.802
575.655
585.034
594.814
577.282
586.027
595.163
575.648
585.041
594.818
575.708
585.112
594.859
578.684
586.845
595.435
578.364
586.654
595.375
578.632
586.804
595.419
586.67
595.381
579.351
587.246
595.57
579.792
587.517
595.658
579.665
587.466
595.659
579.124
587.113
595.529
580.002
587.645
595.712
579.467
587.331
595.606
579.83
587.545
595.668
579.65
587.45
595.652
579.264
587.221
595.576
579.972
587.641
595.715
577.367
586.028
595.15
576.69
585.619
595.002
577.646
586.221
595.233
577.907
586.392
595.293
576.965
585.793
595.079
577.04
585.891
595.122
576.504
585.585
595.02
578.536
586.75
595.411
576.859
585.7
595.044
577.06
585.887
595.111
576.833
585.781
595.092
578.54
586.753
595.411
577.124
585.92
595.147
575.615
584.956
594.789
574.88
584.518
594.643
574.801
584.483
594.638
576.327
585.363
594.932
576.323
585.355
594.924
576.135
585.259
594.892
576.188
585.309
594.914
578.283
586.593
595.341
577.915
586.36
595.262
578.313
586.62
595.356
577.888
586.338
595.253
581.378
588.501
596.006
581.361
588.484
595.997
581.171
588.337
595.925
581.073
588.318
595.932
581.118
588.363
595.946
581.089
588.323
595.929
581.116
588.353
595.94
579.831
587.524
595.661
579.904
587.587
595.682
579.9
587.589
595.687
579.163
587.154
595.538
579.191
587.174
595.549
578.67
586.839
595.444
578.791
586.948
595.486
578.848
586.927
595.466
578.826
586.958
595.476
578.8
586.931
595.484
578.892
587.007
595.507
578.974
587.02
595.511
578.916
587.02
595.503
578.939
587.006
595.497
578.722
586.881
595.442
578.77
586.913
595.457
580.938
588.247
595.946
580.866
588.22
595.946
580.646
588.084
595.89
580.223
587.791
595.764
580.624
588.064
595.862
580.099
587.756
595.77
580.004
587.633
595.688
580.05
587.662
595.703
579.113
587.09
595.507
579.672
587.49
595.687
579.569
587.455
595.667
578.761
586.883
595.438
579.67
587.464
595.671
579.988
587.66
595.74
580.278
587.804
595.748
580.832
588.148
595.871
580.313
587.827
595.758
580.566
588.019
595.854
580.593
588.026
595.861
580.335
587.819
595.758
580.109
587.724
595.739
580.559
588.01
595.84
580.035
587.702
595.746
580.05
587.638
595.683
580.026
587.663
595.711
579.359
587.261
595.582
579.697
587.497
595.683
579.667
587.496
595.675
578.993
587.061
595.516
579.649
587.444
595.658
579.79
587.552
595.701
580.198
587.737
595.713
580.842
588.145
595.863
580.326
587.831
595.757
582.07
588.988
596.225
580.998
588.344
595.986
580.953
588.313
595.973
581.985
588.876
596.168
581.896
588.791
596.125
581.487
588.546
596.015
581.707
588.699
596.082
581.41
588.505
595.996
581.654
588.665
596.071
574.231
584.111
594.484
574.686
584.38
594.573
574.612
584.336
594.554
574.956
584.601
594.665
576.741
585.65
595.034
576.43
585.487
594.973
576.258
585.329
594.912
575.647
585.005
594.804
574.219
584.141
594.506
573.604
583.671
594.319
575.898
585.109
594.837
574.706
584.383
594.573
575.705
585.025
594.816
575.148
584.669
594.678
574.315
584.118
594.454
575.174
584.653
594.672
575.866
585.067
594.822
576.881
585.735
595.079
576.092
585.181
594.845
576.144
585.339
594.939
576.054
585.166
594.825
576.176
585.266
594.869
577.152
585.879
595.095
577.04
585.83
595.097
576.585
585.629
595.029
577.477
586.111
595.177
577.418
586.03
595.159
576.838
585.722
595.072
575.099
584.616
594.639
575.477
584.844
594.714
575.509
584.885
594.741
586.012
595.185
585.635
595.045
594.613
574.632
584.38
594.598
584.842
594.749
573.721
583.788
594.365
585.257
594.897
572.929
583.282
594.178
572.941
583.316
594.201
572.544
583.06
594.119
572.58
583.095
594.139
572.147
582.818
594.015
572.189
582.874
594.036
573.797
583.924
594.45
574.237
584.072
594.485
575.233
584.702
594.719
574.765
584.401
594.602
573.493
583.668
594.347
573.557
583.686
594.344
573.072
583.412
594.243
573.382
583.527
594.279
574.233
584.1
594.499
573.032
583.378
594.226
572.657
583.107
594.124
572.764
583.182
594.154
572.572
583.069
594.113
573.984
583.967
594.439
574.355
584.2
594.559
573.127
583.488
594.29
573.646
583.6
594.303
573.112
583.334
594.231
575.107
584.628
594.674
573.933
583.833
594.371
571.174
582.236
593.809
571.859
582.726
594.036
572.144
582.707
593.968
572.9
583.27
594.203
572.102
582.786
594.03
582.825
594.05
571.417
582.345
593.861
571.3
582.241
593.797
573.228
583.523
594.326
573.286
583.591
594.368
572.332
582.935
594.115
572.474
583.042
594.124
571.989
582.735
594.014
572.081
582.768
594.024
421.779
530.27
411.098
440.259
414.3
444.541
451.241
486.852
466.153
477.082
482.895
432.392
398.591
405.659
543.029
555.55
537.806
512.168
558.686
524.478
548.25
550.549
508.296
542.783
513.624
536.905
546.656
519.441
517.454
514.807
500.888
493.274
582.395
593.897
571.35
571.204
582.217
571.185
572.355
571.423
582.344
361.244
363.119
367.242
371.816
374.797
360.438
362.815
368.102
373.974
377.794
359.214
361.504
367.889
375.218
380.742
357.658
360.73
368.992
378.859
386.105
355.522
359.679
370.783
384.053
393.709
352.536
358.33
373.538
391.791
405.045
348.286
356.43
377.628
403.515
422.862
342.236
353.422
383.117
421.915
453.602
333.928
348.071
388.566
451.209
501.915
323.53
338.637
388.157
474.596
537.774
361.234
361.643
361.553
360.908
360.895
361.333
361.234
360.423
360.931
360.817
359.858
359.835
360.381
360.246
359.181
359.798
359.618
358.494
358.457
359.164
358.959
357.615
358.424
358.187
356.677
356.626
357.562
357.286
355.461
356.562
356.237
354.158
354.087
355.389
355.006
352.455
354.002
353.553
350.601
350.507
352.355
351.828
348.178
350.397
349.773
345.518
345.392
348.053
347.314
342.093
345.217
344.352
338.383
338.224
341.792
340.803
333.757
337.692
336.605
328.924
328.751
332.905
331.771
323.368
327.486
326.379
361.106
364.318
363.714
361.164
360.719
364.338
363.657
367.1
371.715
370.784
368.348
367.458
372.703
371.643
374.322
378.538
377.376
376.904
375.724
380.555
379.262
379.498
382.036
380.747
383.213
381.847
384.623
383.217
360.22
364.384
363.604
360.232
359.641
364.459
363.563
367.975
374.009
372.789
369.788
368.628
375.6
374.203
377.486
383.038
381.552
381.204
379.619
386.016
384.3
384.542
387.713
386.109
389.553
387.751
391.403
389.557
358.984
364.59
363.556
359.054
358.232
364.797
363.575
369.449
377.544
375.941
372.013
370.453
379.915
378.046
382.233
389.62
387.644
387.532
385.409
394.026
391.721
391.627
395.847
393.712
398.782
396.36
401.266
398.783
357.362
365.077
363.628
357.472
356.334
365.422
363.705
371.692
382.813
380.61
375.401
373.203
386.351
383.729
389.282
399.448
396.718
397.026
394.032
406.183
402.899
402.179
407.978
405.049
412.876
409.422
416.41
412.882
355.097
365.787
363.773
355.125
353.567
366.133
363.782
375.008
390.671
387.526
380.23
377.086
395.954
392.11
399.9
414.666
410.653
411.651
407.177
425.549
420.513
418.607
427.232
422.868
435.928
430.506
441.522
435.936
351.604
366.308
363.55
351.156
349.061
366.144
362.814
379.33
402.306
397.546
386.082
381.521
409.752
403.801
416.229
439.804
433.223
434.929
427.487
458.995
449.886
446.32
461.174
453.613
483.87
467.902
502.67
483.892
345.748
364.995
361.233
343.989
341.516
362.582
358.438
383.014
418.027
410.56
389.759
383.394
426.328
416.839
441.289
488.233
469.276
466.654
446.261
567.613
519.149
481.357
525.982
501.944
540.066
336.168
358.03
353.676
380.764
422.063
419.617
483.991
537.98
553.574
543.503
498.239
513.559
524.293
509.624
519.795
551.52
508.951
470.206
507.056
481.241
501.78
476.318
535.285
567.271
499.56
527.508
522.41
563.434
522.934
517.436
503.765
548.862
521.733
521.742
567.344
517.574
560.376
560.309
543.521
498.246
513.573
524.338
509.658
519.778
551.476
561.852
540.161
532.754
567.874
556.905
517.9
568.255
568.105
527.15
527.189
565.881
573.414
573.464
561.923
540.178
532.785
567.75
563.44
553.878
531.701
523.173
557.896
528.546
505.893
567.302
559.645
516.582
507.239
318.033
317.89
321.613
320.616
512.066
484.098
478.692
544.462
514.405
454.335
468.37
487.314
557.745
563.738
535.663
563.833
510.555
538.729
556.12
554.407
566.912
555.064
553.313
539.839
491.219
499.397
492.686
557.339
479.321
513.207
507.205
524.269
491.194
491.212
498.047
502.164
510.655
510.654
568.38
567.775
568.532
567.818
557.291
555.12
466.802
500.115
453.715
450.463
461.905
476.972
491.276
565.919
565.286
549.883
565.301
565.167
561.436
559.149
563.148
554.888
536.082
565.548
549.413
547.389
532.906
552.902
551.098
541.868
534.208
555.263
555.36
538.001
538.037
560.572
546.854
549.503
566.293
566.298
565.346
548.188
548.194
544.275
558.828
541.84
563.853
540.534
562.636
545.572
544.28
558.824
541.818
563.9
540.545
562.61
545.584
572.652
554.406
564.956
559.438
569.035
567.878
556.315
539.046
554.33
552.616
555.275
568.517
562.62
566.526
571.301
564.681