  # Source : patch outlet
# Faces  : 160
# Time	sum(magSf)	weightedAverage(T)
4.014062e+01	8.718506e+00	3.648688e+02
4.045312e+01	8.718506e+00	3.648688e+02
4.076562e+01	8.718506e+00	3.648689e+02
4.107812e+01	8.718506e+00	3.648689e+02
4.139062e+01	8.718506e+00	3.648689e+02
4.170312e+01	8.718506e+00	3.648690e+02
4.201562e+01	8.718506e+00	3.648690e+02
4.232812e+01	8.718506e+00	3.648689e+02
4.264062e+01	8.718506e+00	3.648685e+02
4.295312e+01	8.718506e+00	3.648676e+02
4.326562e+01	8.718506e+00	3.648656e+02
4.357812e+01	8.718506e+00	3.648618e+02
4.389062e+01	8.718506e+00	3.648553e+02
4.420312e+01	8.718506e+00	3.648449e+02
4.451562e+01	8.718506e+00	3.648296e+02
4.482812e+01	8.718506e+00	3.648083e+02
4.514062e+01	8.718506e+00	3.647800e+02
4.545312e+01	8.718506e+00	3.647440e+02
4.576562e+01	8.718506e+00	3.646998e+02
4.607812e+01	8.718506e+00	3.646474e+02
4.639062e+01	8.718506e+00	3.645867e+02
4.670312e+01	8.718506e+00	3.645183e+02
4.701562e+01	8.718506e+00	3.644426e+02
4.732812e+01	8.718506e+00	3.643604e+02
4.764062e+01	8.718506e+00	3.642727e+02
4.795312e+01	8.718506e+00	3.641802e+02
4.826562e+01	8.718506e+00	3.640840e+02
4.857812e+01	8.718506e+00	3.639850e+02
4.889062e+01	8.718506e+00	3.638840e+02
4.920312e+01	8.718506e+00	3.637818e+02
4.951562e+01	8.718506e+00	3.636791e+02
4.982812e+01	8.718506e+00	3.635765e+02
5.014062e+01	8.718506e+00	3.634745e+02
5.045312e+01	8.718506e+00	3.633735e+02
5.076562e+01	8.718506e+00	3.632739e+02
5.107812e+01	8.718506e+00	3.631760e+02
5.139062e+01	8.718506e+00	3.630799e+02
5.170312e+01	8.718506e+00	3.629857e+02
5.201562e+01	8.718506e+00	3.628936e+02
5.232812e+01	8.718506e+00	3.628036e+02
5.264062e+01	8.718506e+00	3.627157e+02
5.295312e+01	8.718506e+00	3.626298e+02
5.326562e+01	8.718506e+00	3.625460e+02
5.357812e+01	8.718506e+00	3.624642e+02
5.389062e+01	8.718506e+00	3.623844e+02
5.420312e+01	8.718506e+00	3.623063e+02
5.451562e+01	8.718506e+00	3.622301e+02
5.482812e+01	8.718506e+00	3.621555e+02
5.514062e+01	8.718506e+00	3.620826e+02
5.545312e+01	8.718506e+00	3.620112e+02
5.576562e+01	8.718506e+00	3.619412e+02
5.607812e+01	8.718506e+00	3.618726e+02
5.639062e+01	8.718506e+00	3.618053e+02
5.670312e+01	8.718506e+00	3.617392e+02
5.701562e+01	8.718506e+00	3.616743e+02
5.732812e+01	8.718506e+00	3.616105e+02
5.764062e+01	8.718506e+00	3.615477e+02
5.795312e+01	8.718506e+00	3.614859e+02
5.826562e+01	8.718506e+00	3.614251e+02
5.857812e+01	8.718506e+00	3.613651e+02
5.889062e+01	8.718506e+00	3.613059e+02
5.920312e+01	8.718506e+00	3.612476e+02
5.951562e+01	8.718506e+00	3.611900e+02
5.982812e+01	8.718506e+00	3.611331e+02
6.014062e+01	8.718506e+00	3.610769e+02
6.045312e+01	8.718506e+00	3.610214e+02
6.076562e+01	8.718506e+00	3.609665e+02
6.107812e+01	8.718506e+00	3.609122e+02
6.139062e+01	8.718506e+00	3.608584e+02
6.170312e+01	8.718506e+00	3.608053e+02
6.201562e+01	8.718506e+00	3.607526e+02
6.232812e+01	8.718506e+00	3.607004e+02
6.264062e+01	8.718506e+00	3.606488e+02
6.295312e+01	8.718506e+00	3.605976e+02
6.326562e+01	8.718506e+00	3.605468e+02
6.357812e+01	8.718506e+00	3.604965e+02
6.389062e+01	8.718506e+00	3.604466e+02
6.420312e+01	8.718506e+00	3.603971e+02
6.451562e+01	8.718506e+00	3.603480e+02
6.482812e+01	8.718506e+00	3.602993e+02
6.514062e+01	8.718506e+00	3.602510e+02
6.545312e+01	8.718506e+00	3.602030e+02
6.576562e+01	8.718506e+00	3.601553e+02
6.607812e+01	8.718506e+00	3.601080e+02
6.639062e+01	8.718506e+00	3.600610e+02
6.670312e+01	8.718506e+00	3.600144e+02
6.701562e+01	8.718506e+00	3.599680e+02
6.732812e+01	8.718506e+00	3.599219e+02
6.764062e+01	8.718506e+00	3.598762e+02
6.795312e+01	8.718506e+00	3.598307e+02
6.826562e+01	8.718506e+00	3.597855e+02
6.857812e+01	8.718506e+00	3.597405e+02
6.889062e+01	8.718506e+00	3.596958e+02
6.920312e+01	8.718506e+00	3.596514e+02
6.951562e+01	8.718506e+00	3.596072e+02
6.982812e+01	8.718506e+00	3.595633e+02
7.014062e+01	8.718506e+00	3.595196e+02
7.045312e+01	8.718506e+00	3.594761e+02
7.076562e+01	8.718506e+00	3.594329e+02
7.107812e+01	8.718506e+00	3.593898e+02
7.139062e+01	8.718506e+00	3.593470e+02
7.170312e+01	8.718506e+00	3.593044e+02
7.201562e+01	8.718506e+00	3.592621e+02
7.232812e+01	8.718506e+00	3.592199e+02
7.264062e+01	8.718506e+00	3.591779e+02
7.295312e+01	8.718506e+00	3.591361e+02
7.326562e+01	8.718506e+00	3.590945e+02
7.357812e+01	8.718506e+00	3.590531e+02
7.389062e+01	8.718506e+00	3.590119e+02
7.420312e+01	8.718506e+00	3.589708e+02
7.451562e+01	8.718506e+00	3.589299e+02
7.482812e+01	8.718506e+00	3.588892e+02
7.514062e+01	8.718506e+00	3.588487e+02
7.545312e+01	8.718506e+00	3.588083e+02
7.576562e+01	8.718506e+00	3.587681e+02
7.607812e+01	8.718506e+00	3.587281e+02
7.639062e+01	8.718506e+00	3.586882e+02
7.670312e+01	8.718506e+00	3.586484e+02
7.701562e+01	8.718506e+00	3.586088e+02
7.732812e+01	8.718506e+00	3.585694e+02
7.764062e+01	8.718506e+00	3.585301e+02
7.795312e+01	8.718506e+00	3.584910e+02
7.826562e+01	8.718506e+00	3.584520e+02
7.857812e+01	8.718506e+00	3.584131e+02
7.889062e+01	8.718506e+00	3.583743e+02
7.920312e+01	8.718506e+00	3.583357e+02
7.951562e+01	8.718506e+00	3.582973e+02
7.982812e+01	8.718506e+00	3.582589e+02
8.014062e+01	8.718506e+00	3.582207e+02
8.045312e+01	8.718506e+00	3.581826e+02
8.076562e+01	8.718506e+00	3.581447e+02
8.107812e+01	8.718506e+00	3.581068e+02
8.139062e+01	8.718506e+00	3.580691e+02
8.170312e+01	8.718506e+00	3.580315e+02
8.201562e+01	8.718506e+00	3.579941e+02
8.232812e+01	8.718506e+00	3.579568e+02
8.264062e+01	8.718506e+00	3.579195e+02
8.295312e+01	8.718506e+00	3.578825e+02
8.326562e+01	8.718506e+00	3.578455e+02
8.357812e+01	8.718506e+00	3.578086e+02
8.389062e+01	8.718506e+00	3.577719e+02
8.420312e+01	8.718506e+00	3.577353e+02
8.451562e+01	8.718506e+00	3.576988e+02
8.482812e+01	8.718506e+00	3.576624e+02
8.514062e+01	8.718506e+00	3.576261e+02
8.545312e+01	8.718506e+00	3.575899e+02
8.576562e+01	8.718506e+00	3.575538e+02
8.607812e+01	8.718506e+00	3.575179e+02
8.639062e+01	8.718506e+00	3.574820e+02
8.670312e+01	8.718506e+00	3.574463e+02
8.701562e+01	8.718506e+00	3.574107e+02
8.732812e+01	8.718506e+00	3.573751e+02
8.764062e+01	8.718506e+00	3.573397e+02
8.795312e+01	8.718506e+00	3.573043e+02
8.826562e+01	8.718506e+00	3.572690e+02
8.857812e+01	8.718506e+00	3.572338e+02
8.889062e+01	8.718506e+00	3.571987e+02
8.920312e+01	8.718506e+00	3.571637e+02
8.951562e+01	8.718506e+00	3.571288e+02
8.982812e+01	8.718506e+00	3.570939e+02
9.014062e+01	8.718506e+00	3.570591e+02
9.045312e+01	8.718506e+00	3.570244e+02
9.076562e+01	8.718506e+00	3.569898e+02
9.107812e+01	8.718506e+00	3.569552e+02
9.139062e+01	8.718506e+00	3.569207e+02
9.170312e+01	8.718506e+00	3.568863e+02
9.201562e+01	8.718506e+00	3.568519e+02
9.232812e+01	8.718506e+00	3.568176e+02
9.264062e+01	8.718506e+00	3.567833e+02
9.295312e+01	8.718506e+00	3.567491e+02
9.326562e+01	8.718506e+00	3.567150e+02
9.357812e+01	8.718506e+00	3.566809e+02
9.389062e+01	8.718506e+00	3.566469e+02
9.420312e+01	8.718506e+00	3.566129e+02
9.451562e+01	8.718506e+00	3.565790e+02
9.482812e+01	8.718506e+00	3.565452e+02
9.514062e+01	8.718506e+00	3.565114e+02
9.545312e+01	8.718506e+00	3.564777e+02
9.576562e+01	8.718506e+00	3.564440e+02
9.607812e+01	8.718506e+00	3.564104e+02
9.639062e+01	8.718506e+00	3.563768e+02
9.670312e+01	8.718506e+00	3.563433e+02
9.701562e+01	8.718506e+00	3.563099e+02
9.732812e+01	8.718506e+00	3.562765e+02
9.764062e+01	8.718506e+00	3.562431e+02
9.795312e+01	8.718506e+00	3.562099e+02
9.826562e+01	8.718506e+00	3.561766e+02
9.857812e+01	8.718506e+00	3.561435e+02
9.889062e+01	8.718506e+00	3.561104e+02
9.920312e+01	8.718506e+00	3.560773e+02
9.951562e+01	8.718506e+00	3.560443e+02
9.982812e+01	8.718506e+00	3.560114e+02
1.001406e+02	8.718506e+00	3.559785e+02
1.004531e+02	8.718506e+00	3.559457e+02
1.007656e+02	8.718506e+00	3.559129e+02
1.010781e+02	8.718506e+00	3.558802e+02
1.013906e+02	8.718506e+00	3.558475e+02
1.017031e+02	8.718506e+00	3.558149e+02
1.020156e+02	8.718506e+00	3.557823e+02
1.023281e+02	8.718506e+00	3.557498e+02
1.026406e+02	8.718506e+00	3.557173e+02
1.029531e+02	8.718506e+00	3.556849e+02
1.032656e+02	8.718506e+00	3.556526e+02
1.035781e+02	8.718506e+00	3.556203e+02
1.038906e+02	8.718506e+00	3.555880e+02
1.042031e+02	8.718506e+00	3.555558e+02
1.045156e+02	8.718506e+00	3.555236e+02
1.048281e+02	8.718506e+00	3.554915e+02
1.051406e+02	8.718506e+00	3.554594e+02
1.054531e+02	8.718506e+00	3.554274e+02
1.057656e+02	8.718506e+00	3.553954e+02
1.060781e+02	8.718506e+00	3.553635e+02
1.063906e+02	8.718506e+00	3.553316e+02
1.067031e+02	8.718506e+00	3.552998e+02
1.070156e+02	8.718506e+00	3.552680e+02
1.073281e+02	8.718506e+00	3.552362e+02
1.076406e+02	8.718506e+00	3.552045e+02
1.079531e+02	8.718506e+00	3.551729e+02
1.082656e+02	8.718506e+00	3.551413e+02
1.085781e+02	8.718506e+00	3.551097e+02
1.088906e+02	8.718506e+00	3.550782e+02
1.092031e+02	8.718506e+00	3.550467e+02
1.095156e+02	8.718506e+00	3.550152e+02
1.098281e+02	8.718506e+00	3.549838e+02
1.101406e+02	8.718506e+00	3.549525e+02
1.104531e+02	8.718506e+00	3.549211e+02
1.107656e+02	8.718506e+00	3.548899e+02
1.110781e+02	8.718506e+00	3.548586e+02
1.113906e+02	8.718506e+00	3.548274e+02
1.117031e+02	8.718506e+00	3.547963e+02
1.120156e+02	8.718506e+00	3.547651e+02
1.123281e+02	8.718506e+00	3.547341e+02
1.126406e+02	8.718506e+00	3.547030e+02
1.129531e+02	8.718506e+00	3.546720e+02
1.132656e+02	8.718506e+00	3.546411e+02
1.135781e+02	8.718506e+00	3.546101e+02
1.138906e+02	8.718506e+00	3.545792e+02
1.142031e+02	8.718506e+00	3.545484e+02
1.145156e+02	8.718506e+00	3.545176e+02
1.148281e+02	8.718506e+00	3.544868e+02
1.151406e+02	8.718506e+00	3.544561e+02
1.154531e+02	8.718506e+00	3.544253e+02
1.157656e+02	8.718506e+00	3.543947e+02
1.160781e+02	8.718506e+00	3.543640e+02
1.163906e+02	8.718506e+00	3.543334e+02
1.167031e+02	8.718506e+00	3.543029e+02
1.170156e+02	8.718506e+00	3.542723e+02
1.173281e+02	8.718506e+00	3.542419e+02
1.176406e+02	8.718506e+00	3.542114e+02
1.179531e+02	8.718506e+00	3.541810e+02
1.182656e+02	8.718506e+00	3.541506e+02
1.185781e+02	8.718506e+00	3.541202e+02
1.188906e+02	8.718506e+00	3.540899e+02
1.192031e+02	8.718506e+00	3.540596e+02
1.195156e+02	8.718506e+00	3.540293e+02
1.198281e+02	8.718506e+00	3.539991e+02
1.201406e+02	8.718506e+00	3.539689e+02
1.204531e+02	8.718506e+00	3.539388e+02
1.207656e+02	8.718506e+00	3.539086e+02
1.210781e+02	8.718506e+00	3.538785e+02
1.213906e+02	8.718506e+00	3.538485e+02
1.217031e+02	8.718506e+00	3.538184e+02
1.220156e+02	8.718506e+00	3.537884e+02
1.223281e+02	8.718506e+00	3.537585e+02
1.226406e+02	8.718506e+00	3.537285e+02
1.229531e+02	8.718506e+00	3.536986e+02
1.232656e+02	8.718506e+00	3.536687e+02
1.235781e+02	8.718506e+00	3.536389e+02
1.238906e+02	8.718506e+00	3.536090e+02
1.242031e+02	8.718506e+00	3.535793e+02
1.245156e+02	8.718506e+00	3.535495e+02
1.248281e+02	8.718506e+00	3.535198e+02
1.251406e+02	8.718506e+00	3.534901e+02
1.254531e+02	8.718506e+00	3.534604e+02
1.257656e+02	8.718506e+00	3.534307e+02
1.260781e+02	8.718506e+00	3.534011e+02
1.263906e+02	8.718506e+00	3.533715e+02
1.267031e+02	8.718506e+00	3.533420e+02
1.270156e+02	8.718506e+00	3.533124e+02
1.273281e+02	8.718506e+00	3.532829e+02
1.276406e+02	8.718506e+00	3.532534e+02
1.279531e+02	8.718506e+00	3.532240e+02
1.282656e+02	8.718506e+00	3.531946e+02
1.285781e+02	8.718506e+00	3.531652e+02
1.288906e+02	8.718506e+00	3.531358e+02
1.292031e+02	8.718506e+00	3.531065e+02
1.295156e+02	8.718506e+00	3.530772e+02
1.298281e+02	8.718506e+00	3.530479e+02
1.301406e+02	8.718506e+00	3.530186e+02
1.304531e+02	8.718506e+00	3.529894e+02
1.307656e+02	8.718506e+00	3.529602e+02
1.310781e+02	8.718506e+00	3.529310e+02
1.313906e+02	8.718506e+00	3.529018e+02
1.317031e+02	8.718506e+00	3.528727e+02
1.320156e+02	8.718506e+00	3.528436e+02
1.323281e+02	8.718506e+00	3.528145e+02
1.326406e+02	8.718506e+00	3.527854e+02
1.329531e+02	8.718506e+00	3.527564e+02
1.332656e+02	8.718506e+00	3.527274e+02
1.335781e+02	8.718506e+00	3.526984e+02
1.338906e+02	8.718506e+00	3.526695e+02
1.342031e+02	8.718506e+00	3.526405e+02
1.345156e+02	8.718506e+00	3.526116e+02
1.348281e+02	8.718506e+00	3.525827e+02
1.351406e+02	8.718506e+00	3.525539e+02
1.354531e+02	8.718506e+00	3.525251e+02
1.357656e+02	8.718506e+00	3.524962e+02
1.360781e+02	8.718506e+00	3.524675e+02
1.363906e+02	8.718506e+00	3.524387e+02
1.367031e+02	8.718506e+00	3.524100e+02
1.370156e+02	8.718506e+00	3.523812e+02
1.373281e+02	8.718506e+00	3.523526e+02
1.376406e+02	8.718506e+00	3.523239e+02
1.379531e+02	8.718506e+00	3.522952e+02
1.382656e+02	8.718506e+00	3.522666e+02
1.385781e+02	8.718506e+00	3.522380e+02
1.388906e+02	8.718506e+00	3.522094e+02
1.392031e+02	8.718506e+00	3.521809e+02
1.395156e+02	8.718506e+00	3.521523e+02
1.398281e+02	8.718506e+00	3.521238e+02
1.401406e+02	8.718506e+00	3.520954e+02
1.404531e+02	8.718506e+00	3.520669e+02
1.407656e+02	8.718506e+00	3.520384e+02
1.410781e+02	8.718506e+00	3.520100e+02
1.413906e+02	8.718506e+00	3.519816e+02
1.417031e+02	8.718506e+00	3.519532e+02
1.420156e+02	8.718506e+00	3.519249e+02
1.423281e+02	8.718506e+00	3.518966e+02
1.426406e+02	8.718506e+00	3.518682e+02
1.429531e+02	8.718506e+00	3.518400e+02
1.432656e+02	8.718506e+00	3.518117e+02
1.435781e+02	8.718506e+00	3.517834e+02
1.438906e+02	8.718506e+00	3.517552e+02
1.442031e+02	8.718506e+00	3.517270e+02
1.445156e+02	8.718506e+00	3.516988e+02
1.448281e+02	8.718506e+00	3.516707e+02
1.451406e+02	8.718506e+00	3.516425e+02
1.454531e+02	8.718506e+00	3.516144e+02
1.457656e+02	8.718506e+00	3.515863e+02
1.460781e+02	8.718506e+00	3.515582e+02
1.463906e+02	8.718506e+00	3.515302e+02
1.467031e+02	8.718506e+00	3.515021e+02
1.470156e+02	8.718506e+00	3.514741e+02
1.473281e+02	8.718506e+00	3.514461e+02
1.476406e+02	8.718506e+00	3.514181e+02
1.479531e+02	8.718506e+00	3.513902e+02
1.482656e+02	8.718506e+00	3.513622e+02
1.485781e+02	8.718506e+00	3.513343e+02
1.488906e+02	8.718506e+00	3.513064e+02
1.492031e+02	8.718506e+00	3.512785e+02
1.495156e+02	8.718506e+00	3.512507e+02
1.498281e+02	8.718506e+00	3.512228e+02
1.501406e+02	8.718506e+00	3.511950e+02
1.504531e+02	8.718506e+00	3.511672e+02
1.507656e+02	8.718506e+00	3.511394e+02
1.510781e+02	8.718506e+00	3.511117e+02
1.513906e+02	8.718506e+00	3.510839e+02
1.517031e+02	8.718506e+00	3.510562e+02
1.520156e+02	8.718506e+00	3.510285e+02
1.523281e+02	8.718506e+00	3.510008e+02
1.526406e+02	8.718506e+00	3.509731e+02
1.529531e+02	8.718506e+00	3.509455e+02
1.532656e+02	8.718506e+00	3.509179e+02
1.535781e+02	8.718506e+00	3.508902e+02
1.538906e+02	8.718506e+00	3.508627e+02
1.542031e+02	8.718506e+00	3.508351e+02
1.545156e+02	8.718506e+00	3.508075e+02
1.548281e+02	8.718506e+00	3.507800e+02
1.551406e+02	8.718506e+00	3.507525e+02
1.554531e+02	8.718506e+00	3.507250e+02
1.557656e+02	8.718506e+00	3.506975e+02
1.560781e+02	8.718506e+00	3.506700e+02
1.563906e+02	8.718506e+00	3.506426e+02
1.567031e+02	8.718506e+00	3.506152e+02
1.570156e+02	8.718506e+00	3.505878e+02
1.573281e+02	8.718506e+00	3.505604e+02
1.576406e+02	8.718506e+00	3.505330e+02
1.579531e+02	8.718506e+00	3.505057e+02
1.582656e+02	8.718506e+00	3.504783e+02
1.585781e+02	8.718506e+00	3.504510e+02
1.588906e+02	8.718506e+00	3.504237e+02
1.592031e+02	8.718506e+00	3.503964e+02
1.595156e+02	8.718506e+00	3.503692e+02
1.598281e+02	8.718506e+00	3.503419e+02
1.601406e+02	8.718506e+00	3.503147e+02
1.604531e+02	8.718506e+00	3.502875e+02
1.607656e+02	8.718506e+00	3.502603e+02
1.610781e+02	8.718506e+00	3.502331e+02
1.613906e+02	8.718506e+00	3.502059e+02
1.617031e+02	8.718506e+00	3.501788e+02
1.620156e+02	8.718506e+00	3.501517e+02
1.623281e+02	8.718506e+00	3.501246e+02
1.626406e+02	8.718506e+00	3.500975e+02
1.629531e+02	8.718506e+00	3.500704e+02
1.632656e+02	8.718506e+00	3.500434e+02
1.635781e+02	8.718506e+00	3.500163e+02
1.638906e+02	8.718506e+00	3.499893e+02
1.642031e+02	8.718506e+00	3.499623e+02
1.645156e+02	8.718506e+00	3.499353e+02
1.648281e+02	8.718506e+00	3.499083e+02
1.651406e+02	8.718506e+00	3.498814e+02
1.654531e+02	8.718506e+00	3.498544e+02
1.657656e+02	8.718506e+00	3.498275e+02
1.660781e+02	8.718506e+00	3.498006e+02
1.663906e+02	8.718506e+00	3.497737e+02
1.667031e+02	8.718506e+00	3.497469e+02
1.670156e+02	8.718506e+00	3.497200e+02
1.673281e+02	8.718506e+00	3.496932e+02
1.676406e+02	8.718506e+00	3.496664e+02
1.679531e+02	8.718506e+00	3.496396e+02
1.682656e+02	8.718506e+00	3.496128e+02
1.685781e+02	8.718506e+00	3.495860e+02
1.688906e+02	8.718506e+00	3.495592e+02
1.692031e+02	8.718506e+00	3.495325e+02
1.695156e+02	8.718506e+00	3.495058e+02
1.698281e+02	8.718506e+00	3.494791e+02
1.701406e+02	8.718506e+00	3.494524e+02
1.704531e+02	8.718506e+00	3.494257e+02
1.707656e+02	8.718506e+00	3.493991e+02
1.710781e+02	8.718506e+00	3.493724e+02
1.713906e+02	8.718506e+00	3.493458e+02
1.717031e+02	8.718506e+00	3.493192e+02
1.720156e+02	8.718506e+00	3.492926e+02
1.723281e+02	8.718506e+00	3.492660e+02
1.726406e+02	8.718506e+00	3.492394e+02
1.729531e+02	8.718506e+00	3.492129e+02
1.732656e+02	8.718506e+00	3.491864e+02
1.735781e+02	8.718506e+00	3.491599e+02
1.738906e+02	8.718506e+00	3.491334e+02
1.742031e+02	8.718506e+00	3.491069e+02
1.745156e+02	8.718506e+00	3.490804e+02
1.748281e+02	8.718506e+00	3.490540e+02
1.751406e+02	8.718506e+00	3.490275e+02
1.754531e+02	8.718506e+00	3.490011e+02
1.757656e+02	8.718506e+00	3.489747e+02
1.760781e+02	8.718506e+00	3.489483e+02
1.763906e+02	8.718506e+00	3.489219e+02
1.767031e+02	8.718506e+00	3.488956e+02
1.770156e+02	8.718506e+00	3.488692e+02
1.773281e+02	8.718506e+00	3.488429e+02
1.776406e+02	8.718506e+00	3.488166e+02
1.779531e+02	8.718506e+00	3.487903e+02
1.782656e+02	8.718506e+00	3.487640e+02
1.785781e+02	8.718506e+00	3.487378e+02
1.788906e+02	8.718506e+00	3.487115e+02
1.792031e+02	8.718506e+00	3.486853e+02
1.795156e+02	8.718506e+00	3.486590e+02
1.798281e+02	8.718506e+00	3.486328e+02
1.801406e+02	8.718506e+00	3.486067e+02
1.804531e+02	8.718506e+00	3.485805e+02
1.807656e+02	8.718506e+00	3.485543e+02
1.810781e+02	8.718506e+00	3.485282e+02
1.813906e+02	8.718506e+00	3.485020e+02
1.817031e+02	8.718506e+00	3.484759e+02
1.820156e+02	8.718506e+00	3.484498e+02
1.823281e+02	8.718506e+00	3.484238e+02
1.826406e+02	8.718506e+00	3.483977e+02
1.829531e+02	8.718506e+00	3.483716e+02
1.832656e+02	8.718506e+00	3.483456e+02
1.835781e+02	8.718506e+00	3.483196e+02
1.838906e+02	8.718506e+00	3.482936e+02
1.842031e+02	8.718506e+00	3.482676e+02
1.845156e+02	8.718506e+00	3.482416e+02
1.848281e+02	8.718506e+00	3.482156e+02
1.851406e+02	8.718506e+00	3.481897e+02
1.854531e+02	8.718506e+00	3.481637e+02
1.857656e+02	8.718506e+00	3.481378e+02
1.860781e+02	8.718506e+00	3.481119e+02
1.863906e+02	8.718506e+00	3.480860e+02
1.867031e+02	8.718506e+00	3.480601e+02
1.870156e+02	8.718506e+00	3.480343e+02
1.873281e+02	8.718506e+00	3.480084e+02
1.876406e+02	8.718506e+00	3.479826e+02
1.879531e+02	8.718506e+00	3.479568e+02
1.882656e+02	8.718506e+00	3.479310e+02
1.885781e+02	8.718506e+00	3.479052e+02
1.888906e+02	8.718506e+00	3.478794e+02
1.892031e+02	8.718506e+00	3.478536e+02
1.895156e+02	8.718506e+00	3.478279e+02
1.898281e+02	8.718506e+00	3.478022e+02
1.901406e+02	8.718506e+00	3.477764e+02
1.904531e+02	8.718506e+00	3.477507e+02
1.907656e+02	8.718506e+00	3.477251e+02
1.910781e+02	8.718506e+00	3.476994e+02
1.913906e+02	8.718506e+00	3.476737e+02
1.917031e+02	8.718506e+00	3.476481e+02
1.920156e+02	8.718506e+00	3.476224e+02
1.923281e+02	8.718506e+00	3.475968e+02
1.926406e+02	8.718506e+00	3.475712e+02
1.929531e+02	8.718506e+00	3.475456e+02
1.932656e+02	8.718506e+00	3.475201e+02
1.935781e+02	8.718506e+00	3.474945e+02
1.938906e+02	8.718506e+00	3.474690e+02
1.942031e+02	8.718506e+00	3.474434e+02
1.945156e+02	8.718506e+00	3.474179e+02
1.948281e+02	8.718506e+00	3.473924e+02
1.951406e+02	8.718506e+00	3.473669e+02
1.954531e+02	8.718506e+00	3.473414e+02
1.957656e+02	8.718506e+00	3.473160e+02
1.960781e+02	8.718506e+00	3.472905e+02
1.963906e+02	8.718506e+00	3.472651e+02
1.967031e+02	8.718506e+00	3.472397e+02
1.970156e+02	8.718506e+00	3.472143e+02
1.973281e+02	8.718506e+00	3.471889e+02
1.976406e+02	8.718506e+00	3.471635e+02
1.979531e+02	8.718506e+00	3.471382e+02
1.982656e+02	8.718506e+00	3.471128e+02
1.985781e+02	8.718506e+00	3.470875e+02
1.988906e+02	8.718506e+00	3.470622e+02
1.992031e+02	8.718506e+00	3.470368e+02
1.995156e+02	8.718506e+00	3.470116e+02
1.998281e+02	8.718506e+00	3.469863e+02
2.001406e+02	8.718506e+00	3.469610e+02
2.004531e+02	8.718506e+00	3.469358e+02
2.007656e+02	8.718506e+00	3.469105e+02
2.010781e+02	8.718506e+00	3.468853e+02
2.013906e+02	8.718506e+00	3.468601e+02
2.017031e+02	8.718506e+00	3.468349e+02
2.020156e+02	8.718506e+00	3.468097e+02
2.023281e+02	8.718506e+00	3.467845e+02
2.026406e+02	8.718506e+00	3.467594e+02
2.029531e+02	8.718506e+00	3.467343e+02
2.032656e+02	8.718506e+00	3.467091e+02
2.035781e+02	8.718506e+00	3.466840e+02
2.038906e+02	8.718506e+00	3.466589e+02
2.042031e+02	8.718506e+00	3.466338e+02
2.045156e+02	8.718506e+00	3.466088e+02
2.048281e+02	8.718506e+00	3.465837e+02
2.051406e+02	8.718506e+00	3.465586e+02
2.054531e+02	8.718506e+00	3.465336e+02
2.057656e+02	8.718506e+00	3.465086e+02
2.060781e+02	8.718506e+00	3.464836e+02
2.063906e+02	8.718506e+00	3.464586e+02
2.067031e+02	8.718506e+00	3.464336e+02
2.070156e+02	8.718506e+00	3.464087e+02
2.073281e+02	8.718506e+00	3.463837e+02
2.076406e+02	8.718506e+00	3.463588e+02
2.079531e+02	8.718506e+00	3.463339e+02
2.082656e+02	8.718506e+00	3.463089e+02
2.085781e+02	8.718506e+00	3.462841e+02
2.088906e+02	8.718506e+00	3.462592e+02
2.092031e+02	8.718506e+00	3.462343e+02
2.095156e+02	8.718506e+00	3.462094e+02
2.098281e+02	8.718506e+00	3.461846e+02
2.101406e+02	8.718506e+00	3.461598e+02
2.104531e+02	8.718506e+00	3.461350e+02
2.107656e+02	8.718506e+00	3.461102e+02
2.110781e+02	8.718506e+00	3.460854e+02
2.113906e+02	8.718506e+00	3.460606e+02
2.117031e+02	8.718506e+00	3.460358e+02
2.120156e+02	8.718506e+00	3.460111e+02
2.123281e+02	8.718506e+00	3.459864e+02
2.126406e+02	8.718506e+00	3.459616e+02
2.129531e+02	8.718506e+00	3.459369e+02
2.132656e+02	8.718506e+00	3.459122e+02
2.135781e+02	8.718506e+00	3.458875e+02
2.138906e+02	8.718506e+00	3.458629e+02
2.142031e+02	8.718506e+00	3.458382e+02
2.145156e+02	8.718506e+00	3.458136e+02
2.148281e+02	8.718506e+00	3.457890e+02
2.151406e+02	8.718506e+00	3.457643e+02
2.154531e+02	8.718506e+00	3.457397e+02
2.157656e+02	8.718506e+00	3.457152e+02
2.160781e+02	8.718506e+00	3.456906e+02
2.163906e+02	8.718506e+00	3.456660e+02
2.167031e+02	8.718506e+00	3.456415e+02
2.170156e+02	8.718506e+00	3.456169e+02
2.173281e+02	8.718506e+00	3.455924e+02
2.176406e+02	8.718506e+00	3.455679e+02
2.179531e+02	8.718506e+00	3.455434e+02
2.182656e+02	8.718506e+00	3.455189e+02
2.185781e+02	8.718506e+00	3.454944e+02
2.188906e+02	8.718506e+00	3.454700e+02
2.192031e+02	8.718506e+00	3.454455e+02
2.195156e+02	8.718506e+00	3.454211e+02
2.198281e+02	8.718506e+00	3.453967e+02
2.201406e+02	8.718506e+00	3.453723e+02
2.204531e+02	8.718506e+00	3.453479e+02
2.207656e+02	8.718506e+00	3.453235e+02
2.210781e+02	8.718506e+00	3.452992e+02
2.213906e+02	8.718506e+00	3.452748e+02
2.217031e+02	8.718506e+00	3.452505e+02
2.220156e+02	8.718506e+00	3.452261e+02
2.223281e+02	8.718506e+00	3.452018e+02
2.226406e+02	8.718506e+00	3.451775e+02
2.229531e+02	8.718506e+00	3.451532e+02
2.232656e+02	8.718506e+00	3.451290e+02
2.235781e+02	8.718506e+00	3.451047e+02
2.238906e+02	8.718506e+00	3.450805e+02
2.242031e+02	8.718506e+00	3.450562e+02
2.245156e+02	8.718506e+00	3.450320e+02
2.248281e+02	8.718506e+00	3.450078e+02
2.251406e+02	8.718506e+00	3.449836e+02
2.254531e+02	8.718506e+00	3.449594e+02
2.257656e+02	8.718506e+00	3.449352e+02
2.260781e+02	8.718506e+00	3.449111e+02
2.263906e+02	8.718506e+00	3.448869e+02
2.267031e+02	8.718506e+00	3.448628e+02
2.270156e+02	8.718506e+00	3.448387e+02
2.273281e+02	8.718506e+00	3.448146e+02
2.276406e+02	8.718506e+00	3.447905e+02
2.279531e+02	8.718506e+00	3.447664e+02
2.282656e+02	8.718506e+00	3.447423e+02
2.285781e+02	8.718506e+00	3.447183e+02
2.288906e+02	8.718506e+00	3.446942e+02
2.292031e+02	8.718506e+00	3.446702e+02
2.295156e+02	8.718506e+00	3.446462e+02
2.298281e+02	8.718506e+00	3.446222e+02
2.301406e+02	8.718506e+00	3.445982e+02
2.304531e+02	8.718506e+00	3.445742e+02
2.307656e+02	8.718506e+00	3.445503e+02
2.310781e+02	8.718506e+00	3.445263e+02
2.313906e+02	8.718506e+00	3.445024e+02
2.317031e+02	8.718506e+00	3.444784e+02
2.320156e+02	8.718506e+00	3.444545e+02
2.323281e+02	8.718506e+00	3.444306e+02
2.326406e+02	8.718506e+00	3.444067e+02
2.329531e+02	8.718506e+00	3.443829e+02
2.332656e+02	8.718506e+00	3.443590e+02
2.335781e+02	8.718506e+00	3.443351e+02
2.338906e+02	8.718506e+00	3.443113e+02
2.342031e+02	8.718506e+00	3.442875e+02
2.345156e+02	8.718506e+00	3.442637e+02
2.348281e+02	8.718506e+00	3.442399e+02
2.351406e+02	8.718506e+00	3.442161e+02
2.354531e+02	8.718506e+00	3.441923e+02
2.357656e+02	8.718506e+00	3.441685e+02
2.360781e+02	8.718506e+00	3.441448e+02
2.363906e+02	8.718506e+00	3.441211e+02
2.367031e+02	8.718506e+00	3.440973e+02
2.370156e+02	8.718506e+00	3.440736e+02
2.373281e+02	8.718506e+00	3.440499e+02
2.376406e+02	8.718506e+00	3.440262e+02
2.379531e+02	8.718506e+00	3.440026e+02
2.382656e+02	8.718506e+00	3.439789e+02
2.385781e+02	8.718506e+00	3.439552e+02
2.388906e+02	8.718506e+00	3.439316e+02
2.392031e+02	8.718506e+00	3.439080e+02
2.395156e+02	8.718506e+00	3.438844e+02
2.398281e+02	8.718506e+00	3.438608e+02
2.401406e+02	8.718506e+00	3.438372e+02
2.404531e+02	8.718506e+00	3.438136e+02
2.407656e+02	8.718506e+00	3.437901e+02
2.410781e+02	8.718506e+00	3.437665e+02
2.413906e+02	8.718506e+00	3.437430e+02
2.417031e+02	8.718506e+00	3.437194e+02
2.420156e+02	8.718506e+00	3.436959e+02
2.423281e+02	8.718506e+00	3.436724e+02
2.426406e+02	8.718506e+00	3.436490e+02
2.429531e+02	8.718506e+00	3.436255e+02
2.432656e+02	8.718506e+00	3.436020e+02
2.435781e+02	8.718506e+00	3.435786e+02
2.438906e+02	8.718506e+00	3.435551e+02
2.442031e+02	8.718506e+00	3.435317e+02
2.445156e+02	8.718506e+00	3.435083e+02
2.448281e+02	8.718506e+00	3.434849e+02
2.451406e+02	8.718506e+00	3.434615e+02
2.454531e+02	8.718506e+00	3.434381e+02
2.457656e+02	8.718506e+00	3.434148e+02
2.460781e+02	8.718506e+00	3.433914e+02
2.463906e+02	8.718506e+00	3.433681e+02
2.467031e+02	8.718506e+00	3.433448e+02
2.470156e+02	8.718506e+00	3.433215e+02
2.473281e+02	8.718506e+00	3.432982e+02
2.476406e+02	8.718506e+00	3.432749e+02
2.479531e+02	8.718506e+00	3.432516e+02
2.482656e+02	8.718506e+00	3.432283e+02
2.485781e+02	8.718506e+00	3.432051e+02
2.488906e+02	8.718506e+00	3.431818e+02
2.492031e+02	8.718506e+00	3.431586e+02
2.495156e+02	8.718506e+00	3.431354e+02
2.498281e+02	8.718506e+00	3.431122e+02
2.501406e+02	8.718506e+00	3.430890e+02
2.504531e+02	8.718506e+00	3.430658e+02
2.507656e+02	8.718506e+00	3.430427e+02
2.510781e+02	8.718506e+00	3.430195e+02
2.513906e+02	8.718506e+00	3.429964e+02
2.517031e+02	8.718506e+00	3.429732e+02
2.520156e+02	8.718506e+00	3.429501e+02
2.523281e+02	8.718506e+00	3.429270e+02
2.526406e+02	8.718506e+00	3.429039e+02
2.529531e+02	8.718506e+00	3.428809e+02
2.532656e+02	8.718506e+00	3.428578e+02
2.535781e+02	8.718506e+00	3.428347e+02
2.538906e+02	8.718506e+00	3.428117e+02
2.542031e+02	8.718506e+00	3.427887e+02
2.545156e+02	8.718506e+00	3.427656e+02
2.548281e+02	8.718506e+00	3.427426e+02
2.551406e+02	8.718506e+00	3.427197e+02
2.554531e+02	8.718506e+00	3.426967e+02
2.557656e+02	8.718506e+00	3.426737e+02
2.560781e+02	8.718506e+00	3.426507e+02
2.563906e+02	8.718506e+00	3.426278e+02
2.567031e+02	8.718506e+00	3.426049e+02
2.570156e+02	8.718506e+00	3.425819e+02
2.573281e+02	8.718506e+00	3.425590e+02
2.576406e+02	8.718506e+00	3.425361e+02
2.579531e+02	8.718506e+00	3.425133e+02
2.582656e+02	8.718506e+00	3.424904e+02
2.585781e+02	8.718506e+00	3.424675e+02
2.588906e+02	8.718506e+00	3.424447e+02
2.592031e+02	8.718506e+00	3.424218e+02
2.595156e+02	8.718506e+00	3.423990e+02
2.598281e+02	8.718506e+00	3.423762e+02
2.601406e+02	8.718506e+00	3.423534e+02
2.604531e+02	8.718506e+00	3.423306e+02
2.607656e+02	8.718506e+00	3.423079e+02
2.610781e+02	8.718506e+00	3.422851e+02
2.613906e+02	8.718506e+00	3.422623e+02
2.617031e+02	8.718506e+00	3.422396e+02
2.620156e+02	8.718506e+00	3.422169e+02
2.623281e+02	8.718506e+00	3.421942e+02
2.626406e+02	8.718506e+00	3.421715e+02
2.629531e+02	8.718506e+00	3.421488e+02
2.632656e+02	8.718506e+00	3.421261e+02
2.635781e+02	8.718506e+00	3.421034e+02
2.638906e+02	8.718506e+00	3.420808e+02
2.642031e+02	8.718506e+00	3.420581e+02
2.645156e+02	8.718506e+00	3.420355e+02
2.648281e+02	8.718506e+00	3.420129e+02
2.651406e+02	8.718506e+00	3.419903e+02
2.654531e+02	8.718506e+00	3.419677e+02
2.657656e+02	8.718506e+00	3.419451e+02
2.660781e+02	8.718506e+00	3.419225e+02
2.663906e+02	8.718506e+00	3.419000e+02
2.667031e+02	8.718506e+00	3.418774e+02
2.670156e+02	8.718506e+00	3.418549e+02
2.673281e+02	8.718506e+00	3.418324e+02
2.676406e+02	8.718506e+00	3.418099e+02
2.679531e+02	8.718506e+00	3.417874e+02
2.682656e+02	8.718506e+00	3.417649e+02
2.685781e+02	8.718506e+00	3.417424e+02
2.688906e+02	8.718506e+00	3.417199e+02
2.692031e+02	8.718506e+00	3.416975e+02
2.695156e+02	8.718506e+00	3.416750e+02
2.698281e+02	8.718506e+00	3.416526e+02
2.701406e+02	8.718506e+00	3.416302e+02
2.704531e+02	8.718506e+00	3.416078e+02
2.707656e+02	8.718506e+00	3.415854e+02
2.710781e+02	8.718506e+00	3.415630e+02
2.713906e+02	8.718506e+00	3.415407e+02
2.717031e+02	8.718506e+00	3.415183e+02
2.720156e+02	8.718506e+00	3.414960e+02
2.723281e+02	8.718506e+00	3.414736e+02
2.726406e+02	8.718506e+00	3.414513e+02
2.729531e+02	8.718506e+00	3.414290e+02
2.732656e+02	8.718506e+00	3.414067e+02
2.735781e+02	8.718506e+00	3.413844e+02
2.738906e+02	8.718506e+00	3.413621e+02
2.742031e+02	8.718506e+00	3.413399e+02
2.745156e+02	8.718506e+00	3.413176e+02
2.748281e+02	8.718506e+00	3.412954e+02
2.751406e+02	8.718506e+00	3.412732e+02
2.754531e+02	8.718506e+00	3.412509e+02
2.757656e+02	8.718506e+00	3.412287e+02
2.760781e+02	8.718506e+00	3.412066e+02
2.763906e+02	8.718506e+00	3.411844e+02
2.767031e+02	8.718506e+00	3.411622e+02
2.770156e+02	8.718506e+00	3.411401e+02
2.773281e+02	8.718506e+00	3.411179e+02
2.776406e+02	8.718506e+00	3.410958e+02
2.779531e+02	8.718506e+00	3.410737e+02
2.782656e+02	8.718506e+00	3.410516e+02
2.785781e+02	8.718506e+00	3.410295e+02
2.788906e+02	8.718506e+00	3.410074e+02
2.792031e+02	8.718506e+00	3.409853e+02
2.795156e+02	8.718506e+00	3.409632e+02